6153
Atoms. Timestep: 500000
C 26.9461 8.9185 19.6274
C 27.4667 8.80412 21.0331
H 26.9331 7.96111 19.0666
H 25.8597 9.20275 19.5444
H 28.4818 8.67109 21.0559
H 27.2451 9.66999 21.7075
C 26.809 7.67388 21.9158
C 27.2 6.35709 21.3574
H 25.7861 7.90238 21.9993
H 27.285 7.82523 22.9113
H 26.6361 5.62666 21.9978
H 26.7595 6.26477 20.361
C 28.7343 5.93485 21.2297
C 28.9449 4.48119 21.5551
H 29.4215 6.51145 21.8814
H 28.9548 6.10632 20.211
H 28.5048 4.20357 22.5537
H 28.3568 3.79524 20.8586
C 30.3494 3.92695 21.4011
C 30.4852 2.35721 21.6222
H 31.0339 4.50253 22.1015
H 30.5711 4.13504 20.2985
H 29.6037 1.89418 22.1255
H 30.474 1.92669 20.6404
C 31.8093 1.95326 22.1501
C 32.5749 0.933935 21.301
H 31.7825 1.64371 23.2148
H 32.4045 2.83506 22.0827
H 32.1675 38.5325 21.3748
H 32.4395 1.26682 20.2712
C 34.1141 0.858323 21.6963
C 34.9625 2.0043 21.3655
H 34.5357 38.6386 21.1131
H 34.2872 0.566185 22.7156
H 34.8851 2.22539 20.2733
H 34.7973 2.91328 21.9678
C 36.4364 1.68512 21.7395
C 37.3587 2.93727 21.5338
H 36.83 0.971051 20.9745
H 36.5517 1.30618 22.7379
H 37.364 3.37339 20.5225
H 37.0768 3.66191 22.2894
C 0.204966 2.49924 21.8843
C 1.19562 3.64705 21.8624
H 0.491683 1.71123 21.2446
H 0.114171 2.055 22.8912
H 1.05224 4.10179 20.9007
H 0.907254 4.38532 22.6341
C 2.67787 3.16067 22.033
C 3.66325 4.3854 22.171
H 2.98553 2.62955 21.1511
H 2.58093 2.56881 23.0142
H 3.62808 5.08611 21.3574
H 3.38763 4.92803 23.0647
C 5.07971 4.03018 22.5015
C 5.73758 3.44395 21.2165
H 4.98087 3.37789 23.3186
H 5.65001 4.82164 22.8411
H 6.6127 2.9521 21.5266
H 5.13241 2.64401 20.8046
C 6.12024 4.39142 20.0374
C 6.07773 3.80711 18.6723
H 7.10985 4.84581 20.148
H 5.70814 5.39324 20.2184
H 7.02932 4.04357 18.2618
H 6.05423 2.67436 18.6455
C 4.994 4.2526 17.7822
C 3.51819 3.94374 18.2055
H 5.21171 4.11678 16.6873
H 5.08132 5.33552 17.8871
H 3.46875 4.0054 19.2638
H 2.8969 4.79946 17.8319
C 2.76624 2.63195 17.7523
C 1.19453 2.52559 18.0342
H 3.23933 1.75361 18.3027
H 3.05411 2.39895 16.6937
H 0.932792 2.63246 19.0836
H 0.677162 3.34866 17.4998
C 0.687599 1.18526 17.4977
C 37.8021 0.945362 17.3972
H 1.0582 0.456218 18.2215
H 1.16226 0.90799 16.5764
H 37.1995 1.58471 17.9865
H 37.5278 1.28249 16.4381
C 37.3873 38.0407 17.4745
C 35.9246 37.8518 17.8928
H 38.1232 37.6417 18.1782
H 37.6001 37.5662 16.4891
H 35.719 38.4245 18.8119
H 35.2601 38.2617 17.0703
C 35.5887 36.3838 18.2251
C 34.0898 36.1054 18.6386
H 36.2125 35.8496 18.94
H 35.773 35.7427 17.4084
H 33.7131 36.7826 19.4172
H 33.4855 36.162 17.7362
C 34.0304 34.6325 19.1457
C 32.6286 34.1636 19.4129
H 34.5718 34.5628 20.1012
H 34.5452 34.0034 18.4385
H 32.2679 34.8989 20.0755
H 31.9088 34.2309 18.5717
C 32.6481 32.6984 19.8848
C 31.2964 32.2147 20.3422
H 33.3677 32.531 20.6856
H 33.0752 32.0809 19.0794
H 31.4927 31.3757 21.0336
H 30.8708 33.0476 20.8329
C 30.3841 31.8988 19.1286
C 29.2236 31.0055 19.4345
H 30.9261 31.3886 18.2939
H 30.0337 32.7415 18.61
H 28.959 30.4077 18.5421
H 29.5999 30.2209 20.008
C 28.0743 31.7741 20.0717
C 26.8987 30.9231 20.4294
H 28.4114 32.3577 20.907
H 27.7848 32.558 19.3979
H 26.7976 30.0526 19.7502
H 27.097 30.4973 21.4214
C 25.5833 31.6994 20.304
C 25.4659 32.9012 21.2998
H 24.7419 31.0391 20.3384
H 25.5932 31.9125 19.2752
H 25.1839 32.6936 22.3569
H 26.4212 33.4343 21.373
C 24.4304 33.9553 20.9143
C 24.2444 35.1815 21.9065
H 23.4599 33.5619 20.6957
H 24.7527 34.4638 20.0593
H 24.3672 34.9004 22.9493
H 25.1001 35.7992 21.667
C 22.8557 35.92 21.6918
C 22.6803 37.0987 22.6599
H 22.1095 35.1954 21.9429
H 22.8002 36.2729 20.6343
H 22.7239 36.7591 23.6881
H 23.4019 37.884 22.5333
C 21.3006 37.8093 22.5654
C 20.9048 38.5923 23.8281
H 20.4899 37.0459 22.3452
H 21.3368 38.5381 21.7483
H 20.929 37.8637 24.5654
H 21.74 0.647083 24.0951
C 19.5894 0.771536 23.6487
C 18.2579 0.199396 24.0942
H 19.4956 1.1375 22.6414
H 19.69 1.65419 24.2842
H 18.0426 37.9547 23.4246
H 18.395 38.4759 25.0768
C 17.133 1.28361 23.9599
C 16.9836 2.14406 25.2003
H 16.1546 0.715952 23.7667
H 17.1796 1.96668 23.0757
H 17.0761 1.53314 26.1021
H 17.8709 2.81198 25.2173
C 15.6236 2.86958 25.1719
C 15.3302 3.82739 26.3393
H 14.8003 2.16571 25.0591
H 15.6316 3.45205 24.1846
H 16.1586 4.46395 26.4342
H 14.3963 4.47262 26.2363
C 14.9833 3.00374 27.6079
C 15.0962 3.76445 28.8493
H 15.7239 2.25835 27.7694
H 14.0313 2.47177 27.3841
H 16.1715 3.83869 29.1434
H 14.6839 4.7849 28.741
C 14.4201 3.10002 30.0702
C 14.5275 3.94669 31.4092
H 14.6708 2.04864 30.1384
H 13.342 3.05375 29.7604
H 14.4922 5.02542 31.1529
H 15.4709 3.66058 31.8464
C 13.5247 3.41309 32.4462
C 13.4565 4.17003 33.8255
H 13.7532 2.36784 32.658
H 12.4844 3.40375 32.0369
H 14.4273 4.6662 34.0726
H 12.8489 5.08227 33.7172
C 13.0195 3.33726 34.9946
C 13.3326 4.03255 36.3437
H 13.5171 2.38039 34.9848
H 11.9291 3.12574 34.8502
H 12.949 3.45532 37.1896
H 14.4247 4.03512 36.4908
C 12.7655 5.4957 36.4169
C 12.9465 6.09161 37.8348
H 11.7227 5.65192 36.1147
H 13.4634 6.06222 35.7139
H 12.2595 5.5976 38.5492
H 14.0075 6.07758 38.0729
C 12.4594 7.60708 37.8701
C 13.5015 8.57695 37.3924
H 12.2027 7.76628 0.361412
H 11.5325 7.71706 37.2688
H 14.3683 8.60248 38.1229
H 13.7802 8.35467 36.3533
C 12.9613 9.99608 37.2345
C 14.025 11.0404 37.1345
H 12.3605 10.2152 38.1146
H 12.3339 9.94019 36.375
H 14.7533 10.8371 37.914
H 14.6612 10.8446 36.2325
C 13.417 12.4904 37.0642
C 14.4014 13.6749 36.8963
H 12.9264 12.6033 38.0039
H 12.6545 12.6909 36.372
H 14.958 13.533 35.9616
H 13.9194 14.6613 36.8516
C 15.3133 13.8375 38.1088
C 16.3036 15.019 37.8997
H 15.7609 12.8506 38.1319
H 14.6075 13.834 0.414712
H 15.8151 16.0007 37.7669
H 16.9446 15.0673 0.180895
C 17.2371 14.9263 36.687
C 18.37 13.8864 36.9066
H 17.7649 15.9138 36.4632
H 16.7331 14.7552 35.7264
H 18.9564 14.0407 37.7877
H 17.9623 12.8225 37.1245
C 19.4133 13.8902 35.7544
C 20.7847 13.419 36.0456
H 19.3892 14.9598 35.3049
H 18.9606 13.2337 34.9996
H 21.2168 14.0062 36.9177
H 20.6147 12.5358 36.5669
C 21.5851 13.4165 34.707
C 22.0412 14.8363 34.3242
H 20.9141 12.9865 33.9477
H 22.4351 12.8043 34.7785
H 21.231 15.5216 34.4321
H 22.8895 15.1813 34.9238
C 22.532 14.7419 32.8866
C 21.4551 15.1658 31.9576
H 22.8269 13.7202 32.6077
H 23.5018 15.2757 32.7576
H 20.5635 14.5581 32.1364
H 21.1752 16.1673 32.2824
C 21.8265 15.1777 30.4593
C 20.4853 15.3703 29.6414
H 22.2821 14.2538 30.1237
H 22.567 15.9989 30.2184
H 19.9139 14.4843 29.6013
H 19.8748 16.1313 30.0729
C 20.5823 15.7451 28.1649
C 19.2404 16.0168 27.58
H 20.9992 14.8481 27.7204
H 21.3009 16.5489 28.1373
H 19.3488 16.3963 26.5318
H 18.7186 14.9968 27.3533
C 18.1743 16.9559 28.3265
C 18.7675 18.2995 28.7447
H 17.837 16.4381 29.2152
H 17.3201 17.2402 27.7457
H 19.5964 18.266 29.4351
H 19.1977 18.8125 27.8692
C 17.734 19.2973 29.2903
C 18.4168 20.5998 29.7883
H 17.0907 18.8922 30.1426
H 17.0884 19.5544 28.4839
H 19.2165 20.3272 30.5103
H 19.0175 21.1586 29.0311
C 17.489 21.4774 30.6023
C 16.6075 22.3429 29.7309
H 18.1707 22.0456 31.2174
H 16.8554 20.8534 31.2716
H 17.2474 22.9644 29.0838
H 15.951 21.8129 29.1437
C 15.7332 23.2956 30.6301
C 16.4432 24.0997 31.7794
H 14.9055 22.7248 31.0844
H 15.1201 23.9009 29.9312
H 17.1848 24.7549 31.385
H 16.8655 23.4582 32.5553
C 15.347 25.007 32.4311
C 14.2347 24.2197 33.1017
H 14.8838 25.6232 31.7413
H 15.9103 25.5555 33.2073
H 13.4721 24.8756 33.4872
H 13.6379 23.6963 32.3805
C 14.6407 23.3266 34.2866
C 14.9502 24.0914 35.562
H 15.3983 22.638 34.1556
H 13.8694 22.5405 34.4647
H 15.8922 24.6511 35.4779
H 14.0652 24.7507 35.5531
C 15.0209 23.1071 36.7418
C 15.1195 24.0212 38.0205
H 15.7623 22.2771 36.7085
H 14.0333 22.6761 36.7827
H 14.2998 24.6887 38.0191
H 14.9455 23.4167 0.254734
C 16.5426 24.518 38.3073
C 16.6034 25.4038 0.985184
H 16.7991 25.1671 37.4619
H 17.093 23.6108 38.2922
H 15.8754 26.1512 0.849961
H 16.2007 24.8282 1.85083
C 17.9765 26.0134 1.21301
C 19.1031 24.9643 1.3262
H 17.9141 26.7413 2.06974
H 18.2004 26.7357 0.378559
H 18.9039 24.4133 2.25417
H 19.1427 24.276 0.520825
C 20.4228 25.6657 1.34977
C 20.937 26.2069 38.5679
H 21.1762 25.015 1.74008
H 20.4305 26.4692 2.03158
H 20.7394 25.4429 37.8635
H 20.375 27.0525 38.2694
C 22.411 26.5463 38.545
C 22.7565 27.4715 1.15432
H 22.6586 26.9246 37.6187
H 22.8869 25.5886 38.5767
H 22.1582 28.2934 0.93765
H 22.5796 27.1795 2.21441
C 24.2472 27.8648 1.17737
C 24.5618 28.8579 2.31721
H 24.4141 28.306 0.17057
H 24.7834 26.8941 1.34224
H 24.1128 29.8417 2.08869
H 24.1515 28.6239 3.27505
C 26.0338 28.929 2.53797
C 26.3729 29.4159 3.98999
H 26.4757 27.9999 2.27499
H 26.3405 29.6821 1.77295
H 25.8898 30.3667 4.32006
H 26.0543 28.6763 4.8027
C 27.8739 29.7341 4.00207
C 28.4445 30.0239 5.43839
H 27.9968 30.6171 3.40821
H 28.4735 28.9742 3.49418
H 28.2481 31.0563 5.73613
H 27.8258 29.4134 6.09601
C 29.9747 29.7733 5.66054
C 30.3706 28.2369 5.71014
H 30.2645 30.2017 6.56001
H 30.5865 30.3006 4.89784
H 29.615 27.8657 6.36917
H 30.1938 27.7551 4.7014
C 31.8016 27.9444 6.26414
C 32.9847 28.7747 5.61946
H 31.9915 26.8066 6.25783
H 31.7485 28.132 7.30527
H 33.0867 28.3633 4.59826
H 32.7814 29.8584 5.54056
C 34.3249 28.4627 6.28069
C 34.3834 28.957 7.7298
H 35.1479 28.9949 5.78228
H 34.5805 27.4301 6.21467
H 33.5778 28.4684 8.34923
H 35.2914 28.6435 8.27398
C 34.3942 30.4877 7.88436
C 33.1602 31.0893 8.48124
H 34.4318 31.0456 6.88854
H 35.3094 30.8298 8.49647
H 32.3217 30.4971 8.20232
H 33.2013 31.0293 9.54608
C 32.7936 32.5126 8.15261
C 32.3168 32.7651 6.71883
H 33.6187 33.1564 8.41212
H 31.9961 32.6935 8.84825
H 33.2188 32.8664 6.15939
H 31.682 31.9279 6.36329
C 31.627 34.0513 6.626
C 30.9155 34.2277 5.28471
H 32.3787 34.7603 6.77321
H 30.8419 34.0799 7.38809
H 31.6309 33.8699 4.54382
H 30.0564 33.5206 5.20999
C 30.5264 35.6885 5.15278
C 30.1293 35.9804 3.7054
H 31.3889 36.3176 5.47244
H 29.7399 35.9125 5.86905
H 30.789 35.4587 3.02956
H 29.2136 35.4064 3.51889
C 30.1458 37.4341 3.401
C 29.6907 37.7991 2.04114
H 31.1634 37.7311 3.63797
H 29.4147 37.9311 4.07211
H 30.496 37.5674 1.34134
H 28.7475 37.2998 1.88165
C 29.6067 0.733405 1.93806
C 28.696 1.15488 0.73831
H 30.6144 1.13386 1.79981
H 29.3033 1.22217 2.89516
H 28.8615 0.533894 38.4453
H 27.7133 1.09377 1.13287
C 28.8301 2.6961 0.396363
C 28.1179 3.08272 37.7195
H 29.859 3.00959 0.312976
H 28.494 3.39539 1.21939
H 28.6085 3.97564 37.2313
H 28.3027 2.32884 36.8713
C 26.5979 3.35151 37.9173
C 25.812 3.57492 36.6298
H 26.498 4.19415 38.624
H 26.1048 2.59287 38.4416
H 26.3493 4.24117 35.9273
H 25.6492 2.64614 36.0659
C 24.3986 4.18904 36.9514
C 23.3846 3.06802 37.3801
H 24.0743 4.66508 36.0512
H 24.4406 5.02164 37.6623
H 23.4466 2.14858 36.7917
H 23.6744 2.84228 38.426
C 21.9869 3.55366 37.3899
C 21.0733 2.4821 38.0361
H 21.7052 3.69739 36.3569
H 22.0095 4.49194 37.9514
H 21.4271 2.36023 0.475092
H 20.0991 2.94631 38.1161
C 20.927 1.19999 37.2097
C 19.7018 0.427828 37.7637
H 21.7957 0.584854 37.2532
H 20.826 1.59081 36.1892
H 19.8627 38.66 0.144979
H 18.742 1.01905 37.7583
C 19.4703 37.73 36.8632
C 18.5287 36.7169 37.5602
H 20.43 37.2358 36.593
H 19.1539 38.1139 35.853
H 19.1767 36.0217 38.0833
H 17.933 37.108 38.3538
C 17.7627 35.8385 36.5386
C 16.5323 35.1333 37.0295
H 18.4318 35.2165 35.9701
H 17.5215 36.4577 35.754
H 16.9019 34.5679 37.8883
H 15.7825 35.8454 37.4795
C 15.7911 34.1956 36.0595
C 16.5409 32.8582 35.9014
H 15.614 34.7137 35.1066
H 14.8141 33.9413 36.4729
H 16.3228 32.3423 34.9638
H 17.6591 32.975 36.0007
C 16.0655 31.8267 36.9278
C 16.8448 30.5366 36.7888
H 15.0577 31.6975 36.7638
H 16.1949 32.1985 37.9299
H 16.4051 29.8372 37.4612
H 16.6891 30.2232 35.8165
C 18.3866 30.6165 36.9536
C 18.7695 31.0868 38.3545
H 18.8505 31.2221 36.0969
H 18.8389 29.6309 36.7942
H 18.5076 32.1555 38.3088
H 18.0184 30.617 0.402081
C 20.255 30.8898 0.252818
C 21.3275 31.7182 38.0954
H 20.462 29.9074 38.4804
H 20.3448 30.8695 1.37053
H 21.1216 31.6468 37.0812
H 21.2649 32.7427 38.5243
C 22.6921 31.0779 38.2261
C 23.7369 31.7492 37.3841
H 22.7001 30.0498 37.852
H 22.8945 31.0559 0.709797
H 23.3573 32.0532 36.3798
H 24.0368 32.6761 37.8033
C 25.0274 30.99 37.2015
C 26.1367 31.7487 36.3604
H 24.7771 30.0476 36.7637
H 25.4282 30.7782 38.1981
H 25.7177 32.0672 35.3725
H 26.4194 32.6165 36.9545
C 27.4253 30.9243 36.227
C 28.3203 31.1801 35.0288
H 27.1144 29.805 36.1931
H 27.9792 31.0882 37.1906
H 28.7776 30.328 34.7165
H 27.7076 31.4686 34.1785
C 29.3805 32.2918 35.2879
C 30.4496 32.1731 34.2408
H 29.8137 32.121 36.3018
H 28.914 33.2587 35.2835
H 30.9001 31.2052 34.295
H 30.111 32.2461 33.1885
C 31.5474 33.2029 34.3764
C 31.257 34.4006 33.3901
H 32.4605 32.7711 33.9417
H 31.7411 33.4816 35.3996
H 31.19 34.1019 32.3239
H 30.2598 34.6123 33.5251
C 32.1687 35.5818 33.566
C 33.6252 35.3229 33.1689
H 32.0183 35.9962 34.5495
H 31.7546 36.3404 32.7783
H 34.1307 34.7783 33.9942
H 33.8089 34.713 32.2515
C 34.3714 36.7053 32.9525
C 34.1147 37.3343 31.5213
H 35.4041 36.5673 32.9482
H 34.2109 37.4651 33.7636
H 34.4495 36.7554 30.662
H 33.0208 37.2907 31.351
C 34.6127 0.171946 31.3974
C 33.8899 1.32542 32.2067
H 34.4637 0.400407 30.3453
H 35.6838 0.267769 31.5836
H 33.4591 0.884412 33.0607
H 34.6992 1.88575 32.5471
C 32.8657 2.22895 31.4626
C 31.5613 1.54831 31.2987
H 33.1744 2.51926 30.4172
H 32.6222 3.09007 31.9922
H 31.7301 0.593558 30.7782
H 31.1705 1.26632 32.2807
C 30.545 2.39823 30.5819
C 29.2532 1.61221 30.3832
H 30.9662 2.84463 29.6242
H 30.3504 3.29091 31.2321
H 29.4782 0.662925 29.8284
H 28.8819 1.3424 31.3598
C 28.1822 2.35823 29.6722
C 26.8824 1.61403 29.5648
H 28.5944 2.67924 28.7299
H 28.071 3.27682 30.2141
H 26.9331 0.62381 28.9972
H 26.5236 1.35915 30.5553
C 25.708 2.42342 28.9614
C 24.4271 1.5739 28.7403
H 25.9244 2.8002 27.9837
H 25.4606 3.28298 29.5708
H 24.6362 0.719203 28.0349
H 24.315 0.982698 29.6901
C 23.1559 2.3489 28.3449
C 22.0175 1.44801 27.9676
H 23.4134 3.05708 27.528
H 22.8569 2.90322 29.1524
H 22.3174 0.777234 27.2443
H 21.8342 0.912329 28.907
C 20.6248 2.14764 27.6513
C 20.4762 3.51981 28.4143
H 19.7678 1.55234 27.9575
H 20.5133 2.18849 26.5803
H 20.4844 3.39584 29.4696
H 21.2359 4.30156 28.0629
C 19.0042 4.04809 28.0614
C 18.7116 5.35518 28.756
H 18.3403 3.26421 28.4564
H 18.8437 4.05242 26.9612
H 19.557 5.99617 28.5371
H 17.9222 5.89249 28.1915
C 18.3742 5.20029 30.2944
C 19.0275 6.26347 31.2332
H 18.7024 4.25359 30.7041
H 17.2523 5.18502 30.3633
H 18.7355 7.28073 30.9096
H 18.7464 6.43658 32.3006
C 20.51 6.1599 31.3537
C 21.0285 4.95994 32.2195
H 20.8576 7.04911 31.7689
H 20.9618 5.98963 30.4042
H 20.4808 4.96677 33.1534
H 20.8635 3.97027 31.6503
C 22.5408 5.06384 32.5946
C 22.9856 3.7819 33.2848
H 22.613 5.89446 33.2918
H 23.2287 5.22561 31.7188
H 24.0091 4.12162 33.7161
H 22.2803 3.49283 34.0345
C 23.2499 2.59215 32.2702
C 23.0948 1.18397 32.8979
H 24.3323 2.53124 32.0191
H 22.7186 2.75458 31.4333
H 23.7426 0.517514 32.2587
H 23.5083 1.08177 33.9079
C 21.6487 0.693238 33.0621
C 21.7157 37.8367 33.4954
H 21.1902 0.73797 32.0787
H 21.206 1.26207 33.8215
H 22.5365 37.3127 33.0503
H 21.7216 37.8165 34.5389
C 20.5384 36.9835 33.0512
C 20.6444 35.6534 33.6086
H 20.7097 36.9329 31.9714
H 19.6074 37.4533 33.2706
H 21.5791 35.1282 33.2738
H 20.7443 35.8585 34.6736
C 19.5183 34.6768 33.3035
C 19.4969 34.1692 31.8521
H 18.5242 35.112 33.5899
H 19.7272 33.8052 33.9511
H 19.0722 35.0057 31.2488
H 20.5202 33.9949 31.4888
C 18.731 32.7927 31.5863
C 19.549 31.5688 32.0571
H 18.7847 32.8035 30.5395
H 17.6858 32.7675 31.9309
H 20.5087 31.5682 31.6286
H 19.8191 31.5981 33.0718
C 18.8369 30.2915 31.602
C 18.0701 29.4347 32.6843
H 19.7051 29.6874 31.1629
H 18.2359 30.638 30.7861
H 18.7223 29.3569 33.5725
H 17.1633 29.9841 32.9361
C 17.6727 28.0244 32.0645
C 16.9416 28.0687 30.7304
H 16.8927 27.6739 32.7728
H 18.5338 27.3749 32.0811
H 17.5282 28.7027 30.0341
H 16.9831 27.0818 30.3805
C 15.497 28.5012 30.7198
C 14.7266 28.0996 29.4947
H 15.4995 29.5566 30.9123
H 15.116 27.9986 31.6426
H 15.061 28.5276 28.5497
H 14.8105 27.004 29.4213
C 13.2607 28.5772 29.6946
C 12.4176 28.1488 28.5076
H 13.3206 29.6901 29.8896
H 12.8823 28.1115 30.5773
H 12.7947 28.4881 27.5598
H 12.386 27.0619 28.4196
C 10.9693 28.7319 28.721
C 10.2603 29.1351 27.3675
H 11.0166 29.6349 29.3568
H 10.3997 27.9907 29.2579
H 10.4749 28.3813 26.6615
H 9.15498 28.9787 27.4489
C 10.6375 30.5065 26.8901
C 10.209 30.6053 25.4504
H 11.6995 30.6321 27.1152
H 10.0963 31.1795 27.6489
H 10.8429 29.8968 24.8529
H 9.11551 30.236 25.3629
C 10.5024 32.0635 24.934
C 10.1694 31.9906 23.4555
H 11.5031 32.3138 25.1145
H 9.83627 32.7967 25.3781
H 10.6575 31.1976 22.867
H 9.08497 31.7599 23.3328
C 10.4403 33.2484 22.6586
C 10.25 32.9988 21.1358
H 11.4878 33.3822 22.7511
H 9.91231 34.1104 23.1558
H 10.7191 32.0691 20.8447
H 9.18708 32.823 20.8885
C 10.7296 34.1734 20.2554
C 10.2533 33.8092 18.7597
H 11.8513 34.2718 20.1815
H 10.3481 35.1422 20.6529
H 11.0735 34.1197 18.1477
H 10.0705 32.7821 18.5851
C 9.06616 34.6933 18.4039
C 8.32676 34.3143 17.1637
H 9.49814 35.6384 18.2066
H 8.41413 34.8327 19.3082
H 9.07553 34.394 16.3562
H 7.95855 33.3282 17.1578
C 7.09344 35.2046 17.0948
C 6.00152 34.9117 18.0755
H 6.74052 35.1442 16.0794
H 7.48142 36.1875 17.1551
H 5.39742 34.0401 17.782
H 6.31854 34.6005 19.1163
C 4.78598 35.9101 18.0519
C 3.53925 35.3856 18.7813
H 4.39567 36.1047 17.0233
H 5.18258 36.8386 18.5077
H 2.95098 34.6534 18.2793
H 3.89179 34.8643 19.6543
C 2.42506 36.4918 19.2477
C 3.01605 37.642 20.1906
H 1.83277 36.8571 18.4284
H 1.7677 35.8847 19.7815
H 3.68971 38.2591 19.6744
H 2.24987 38.3945 20.375
C 3.75368 37.1898 21.5
C 4.19923 38.3483 22.3463
H 4.62276 36.5557 21.2454
H 3.17846 36.4811 22.0805
H 4.85566 0.422812 21.7562
H 3.32318 0.419114 22.4977
C 4.93796 37.9854 23.6572
C 5.24163 0.585547 24.5174
H 5.78187 37.4773 23.3395
H 4.2252 37.3301 24.1541
H 5.95827 1.26091 24.0739
H 4.32582 1.10058 24.5083
C 5.65935 0.121974 25.9287
C 5.41958 1.35356 26.7972
H 6.66764 38.3795 25.9535
H 5.04783 37.8818 26.2418
H 6.07444 2.14502 26.4566
H 4.34387 1.61557 26.5691
C 5.41372 1.08544 28.2495
C 5.02129 2.23543 29.2271
H 6.40834 0.955618 28.5748
H 4.7922 0.178035 28.4162
H 3.98407 2.49828 28.9972
H 5.08585 1.87001 30.2838
C 5.90932 3.42995 29.2353
C 5.44629 4.69245 29.9282
H 6.09975 3.72084 28.1953
H 6.83739 3.0268 29.6581
H 4.4743 4.90875 29.5708
H 5.37338 4.34707 30.9647
C 6.39809 5.93562 29.7723
C 5.81129 7.18928 30.4599
H 6.65897 5.99054 28.7057
H 7.35492 5.64327 30.187
H 5.51595 7.01253 31.5004
H 6.51254 8.02806 30.5824
C 4.50132 7.70498 29.7575
C 3.6609 8.72409 30.5405
H 3.72086 6.94803 29.5198
H 4.81911 8.1518 28.86
H 3.8025 8.5312 31.6458
H 4.0396 9.70874 30.3524
C 2.18254 8.78497 30.1862
C 1.77246 9.19803 28.718
H 1.49232 9.32107 30.8181
H 1.86503 7.71631 30.2893
H 1.94136 10.2816 28.5329
H 2.59927 8.78126 28.1764
C 0.433364 8.69151 28.4163
C 0.230534 8.65451 26.8801
H 38.2069 9.2826 28.8117
H 0.445241 7.64906 28.6884
H 0.425751 9.66257 26.4855
H 1.09181 8.04052 26.5483
C 37.4938 8.08007 26.3405
C 37.519 7.6476 24.9407
H 36.8326 8.91518 26.4164
H 37.1577 7.2991 27.0023
H 37.9793 8.42296 24.2203
H 38.2664 6.85688 25.0063
C 36.1638 7.22626 24.4125
C 36.2264 6.82526 22.9405
H 35.5452 8.15025 24.4606
H 35.7533 6.39761 25.0078
H 36.2885 7.70545 22.3093
H 37.1833 6.29223 22.7928
C 35.1603 5.85215 22.566
C 34.8649 5.70011 21.0534
H 34.1848 6.10007 22.9825
H 35.4695 4.90477 22.9959
H 35.7271 5.30965 20.5077
H 34.1276 4.91443 21.0174
C 34.242 6.98933 20.376
C 32.8235 7.39634 20.8651
H 34.2052 6.72858 19.341
H 34.8603 7.85769 20.4791
H 32.0377 6.65125 20.5235
H 32.8131 7.29339 21.9662
C 32.3779 8.85941 20.5291
C 33.1257 9.98269 21.2444
H 31.3334 9.02149 20.8008
H 32.4013 8.82489 19.4489
H 34.1635 9.91847 21.0537
H 32.7246 10.8851 20.7606
C 33.0516 9.94609 22.8337
C 33.5884 11.2152 23.5015
H 33.4928 9.0584 23.2886
H 31.9583 9.8477 23.0186
H 33.6034 12.0154 22.7385
H 33.0452 11.759 24.3013
C 34.9148 10.8238 24.1554
C 35.4436 12.094 24.8994
H 35.4818 10.42 23.3292
H 34.7244 10.1122 24.9102
H 35.8389 12.7809 24.0929
H 34.6968 12.6671 25.5292
C 36.6297 11.6814 25.7142
C 37.3184 12.9087 26.3309
H 37.342 11.105 25.0295
H 36.3328 11.0569 26.5473
H 37.9774 13.4079 25.6185
H 36.5814 13.6889 26.5924
C 38.0857 12.5312 27.6351
C 0.254545 13.7194 28.3331
H 0.312369 11.9574 27.356
H 37.4032 11.9818 28.3514
H 0.800464 14.3046 27.6699
H 37.993 14.286 28.7153
C 1.11177 13.146 29.4907
C 1.90938 14.2795 30.2493
H 1.80848 12.3731 29.0912
H 0.585147 12.5553 30.1722
H 2.66401 14.6799 29.5635
H 1.15412 15.0453 30.458
C 2.54219 13.7589 31.5023
C 3.69213 12.7961 31.2975
H 1.84905 13.4007 32.208
H 2.94759 14.7772 31.9493
H 3.43743 11.8507 30.8948
H 4.34224 13.2663 30.5451
C 4.6017 12.393 32.4601
C 3.95722 11.3314 33.3836
H 4.90533 13.3096 33.0206
H 5.51618 11.9756 32.0902
H 2.99927 11.6441 33.6947
H 3.66971 10.5359 32.6824
C 4.83945 10.7713 34.4743
C 4.07821 9.89116 35.4215
H 5.15092 11.7098 34.9408
H 5.69005 10.3263 34.007
H 4.61129 9.76512 36.3244
H 3.01661 10.2628 35.5974
C 3.95802 8.46269 34.8768
C 3.70907 7.37854 36.0323
H 4.92513 8.23584 34.4831
H 3.27921 8.43769 34.0846
H 3.80239 6.31884 35.7194
H 4.47229 7.32843 36.8262
C 2.4173 7.67242 36.7558
C 1.99814 6.54526 37.6132
H 1.5905 7.96381 36.125
H 2.64836 8.51439 37.3942
H 2.01907 5.55225 37.0698
H 2.80897 6.3453 38.2728
C 0.671519 6.67178 38.4349
C 0.639869 7.9413 0.765144
H 0.487252 5.77723 0.418469
H 38.4406 6.6741 37.7601
H 0.816324 8.81294 0.132895
H 38.1993 8.07447 1.13999
C 1.59832 7.83552 1.94747
C 1.50805 8.91402 2.9893
H 2.56095 8.02268 1.51277
H 1.70867 6.84837 2.43709
H 1.58132 9.83646 2.4254
H 0.483733 8.88546 3.47418
C 2.58393 8.77068 4.08481
C 2.68621 9.73602 5.21788
H 3.6134 8.75356 3.6559
H 2.47257 7.74211 4.42895
H 2.5166 10.7161 4.7319
H 1.77263 9.60073 5.82691
C 3.94828 9.87216 6.00316
C 3.9455 11.2626 6.82041
H 4.78679 9.77281 5.33133
H 4.12271 9.00168 6.63283
H 4.08079 12.0564 6.07945
H 2.93723 11.355 7.26975
C 4.89459 11.33 7.94133
C 4.69777 12.5429 8.84152
H 5.94549 11.3746 7.56042
H 4.84963 10.3907 8.59652
H 3.59806 12.5572 9.11158
H 5.22201 12.4965 9.81201
C 5.17644 13.7775 8.09052
C 5.21334 15.0688 8.99181
H 4.58619 13.8552 7.20425
H 6.08462 13.6876 7.58317
H 4.16269 15.2706 9.43771
H 5.75659 14.8145 9.92866
C 5.9422 16.2965 8.47219
C 5.20121 17.1008 7.39293
H 6.96788 16.0095 8.26115
H 6.05317 17.0406 9.38005
H 6.04065 17.7161 7.00106
H 4.87869 16.3965 6.60546
C 4.16621 18.0127 8.01646
C 3.26677 18.579 6.97747
H 4.47653 18.7075 8.71487
H 3.51405 17.3294 8.62071
H 3.73619 19.4327 6.49161
H 3.14494 17.8625 6.1297
C 1.84672 18.9468 7.45303
C 0.995765 19.6879 6.44274
H 1.96614 19.5175 8.4037
H 1.29743 18.0571 7.63106
H 1.72101 20.3193 5.96797
H 0.575694 19.0603 5.67932
C 38.5469 20.7111 7.03877
C 37.7119 20.2385 8.24976
H 37.9051 21.1764 6.20373
H 0.52142 21.5419 7.42834
H 37.0232 19.3839 8.05712
H 38.4411 19.7536 8.96876
C 36.9885 21.3412 9.01951
C 36.8351 20.97 10.5498
H 36.0726 21.709 8.55117
H 37.72 22.1508 8.97805
H 37.7981 20.7325 10.9745
H 36.4483 21.864 10.9068
C 35.6894 19.8903 10.6374
C 35.4094 19.2618 12.0384
H 35.9311 19.0138 10.0108
H 34.7969 20.2926 10.1769
H 36.1312 18.5702 12.2805
H 34.5086 18.6985 11.8627
C 35.1406 20.2652 13.1179
C 34.5056 19.7437 14.4187
H 36.1834 20.5574 13.3284
H 34.6319 21.1562 12.6756
H 34.3832 20.6444 15.0539
H 33.5491 19.3608 14.1397
C 35.3644 18.7355 15.224
C 34.8519 18.5043 16.7053
H 35.3787 17.7397 14.7767
H 36.4603 18.9007 15.0829
H 34.6072 19.4777 17.1359
H 34.0221 17.8169 16.5489
C 35.9846 17.8708 17.5032
C 36.8007 18.8745 18.2584
H 36.6488 17.3547 16.7791
H 35.6789 17.1261 18.2423
H 36.9077 19.8134 17.6759
H 36.3083 19.1002 19.2277
C 38.2105 18.3083 18.6374
C 0.298236 19.196 19.683
H 0.265023 18.0752 17.8123
H 37.9175 17.3852 19.1478
H 0.523184 20.2389 19.294
H 38.1576 19.5671 20.41
C 1.47781 18.5179 20.3818
C 2.68205 18.5336 19.4017
H 1.31154 17.541 20.7961
H 1.72244 19.2257 21.1516
H 2.48943 18.1397 18.4246
H 2.98439 19.6537 19.3291
C 3.85181 17.7587 20.0027
C 5.03757 17.4735 19.097
H 3.41738 16.8153 20.2826
H 4.16626 18.311 20.8783
H 4.81161 17.058 18.0773
H 5.46488 18.4796 18.8126
C 6.1685 16.7168 19.8348
C 5.94022 15.3042 20.3659
H 6.42225 17.2328 20.7463
H 7.12861 16.7701 19.2115
H 6.8956 14.6917 20.445
H 5.26857 15.3326 21.2455
C 5.16551 14.5132 19.3261
C 4.85658 13.104 19.9188
H 5.82379 14.3996 18.468
H 4.23897 14.978 18.9689
H 5.62487 12.8272 20.6242
H 4.03219 13.0439 20.6316
C 4.52181 12.1008 18.8441
C 3.07496 12.1831 18.3835
H 4.60661 11.1835 19.3316
H 5.26775 12.1606 17.9973
H 2.35928 12.1843 19.2378
H 2.84406 13.1049 17.8663
C 2.75378 10.9533 17.4194
C 1.50422 11.0879 16.5579
H 2.66357 10.118 18.0971
H 3.69405 10.861 16.7574
H 0.685257 11.3071 17.2942
H 1.62872 12.0411 15.9821
C 1.33407 9.89301 15.7097
C 38.6043 9.81466 14.8483
H 1.47966 8.93635 16.3736
H 2.20938 9.91235 15.0553
H 37.7605 10.0782 15.511
H 38.6592 10.6455 14.1266
C 38.4856 8.45236 14.1085
C 37.0442 8.14571 13.5205
H 38.6573 7.65413 14.861
H 0.743544 8.37906 13.4443
H 36.331 8.25334 14.4023
H 36.7347 8.95646 12.8084
C 36.958 6.83381 12.7061
C 35.494 6.49866 12.5633
H 37.3497 5.97876 13.3007
H 37.4855 6.7633 11.7763
H 35.1167 6.20495 13.5181
H 34.9227 7.25424 12.0735
C 35.2092 5.20643 11.6942
C 35.6233 5.33531 10.2355
H 34.1377 5.02074 11.7189
H 35.7755 4.3842 12.104
H 35.442 6.41021 9.98798
H 36.7182 5.16318 10.1276
C 34.8232 4.45442 9.22037
C 35.2919 2.95889 9.0752
H 34.7904 4.78863 8.19878
H 33.7858 4.43743 9.45112
H 35.6543 2.56916 10.0621
H 34.5574 2.22953 8.86304
C 36.3813 2.79853 7.99171
C 37.23 1.53203 8.22143
H 36.9945 3.67732 7.94982
H 35.8695 2.68613 7.04285
H 36.5637 0.696647 8.25488
H 37.682 1.34497 7.27584
C 38.2468 1.583 9.44152
C 0.596212 2.83102 9.42796
H 0.125329 0.648457 9.24274
H 37.7035 1.59259 10.3981
H 0.833604 2.93492 8.34657
H 0.108251 3.73359 9.76134
C 1.88433 2.51805 10.1935
C 1.85974 2.35745 11.6732
H 2.62289 3.34903 10.0627
H 2.26295 1.63484 9.73023
H 1.00489 1.76054 11.8522
H 2.74591 1.87981 12.0742
C 1.7056 3.71598 12.4238
C 1.80827 3.63697 13.9503
H 0.717372 4.06661 12.3119
H 2.43092 4.43222 11.9653
H 0.853679 3.16259 14.355
H 2.58181 3.01929 14.3523
C 2.02905 4.93577 14.6326
C 3.42973 5.42451 14.4429
H 1.91097 4.8024 15.7475
H 1.26706 5.59896 14.188
H 4.03734 4.62851 14.8286
H 3.67716 5.54141 13.335
C 3.69773 6.74504 15.1874
C 5.20429 6.99886 15.3714
H 3.20811 6.77508 16.1682
H 3.28929 7.59875 14.6088
H 5.65224 6.30361 16.0425
H 5.70797 6.83598 14.4273
C 5.45108 8.47057 15.7589
C 6.89457 8.74913 16.194
H 4.7767 8.62028 16.5585
H 5.05447 9.14334 14.9838
H 7.09691 7.98399 16.9764
H 7.70232 8.51824 15.4378
C 7.16066 10.1037 16.7405
C 8.66454 10.5563 16.8141
H 6.73808 10.0302 17.7641
H 6.53588 10.72 16.0822
H 9.12771 10.525 15.8103
H 8.742 11.6947 17.0595
C 9.51361 9.6227 17.6721
C 9.22035 9.62236 19.2302
H 10.5398 9.96135 17.4646
H 9.63044 8.58468 17.3519
H 8.25862 9.17293 19.2165
H 9.87262 8.87664 19.6709
C 9.40339 11.0398 19.9101
C 8.9203 10.9868 21.2975
H 8.77746 11.8041 19.3619
H 10.4165 11.3727 19.8168
H 7.8345 10.6933 21.3631
H 9.42218 10.2376 21.9521
C 9.04201 12.3171 22.0608
C 8.53816 12.3722 23.4475
H 8.45846 13.0932 21.5792
H 10.062 12.6644 21.9717
H 7.4905 11.9775 23.4384
H 9.01853 11.6366 24.0755
C 8.5613 13.8395 23.9998
C 7.67031 13.9965 25.2649
H 8.20655 14.5221 23.2982
H 9.56095 14.03 24.2618
H 6.6514 13.5484 25.093
H 8.02674 13.3272 26.077
C 7.60577 15.5229 25.6824
C 6.73511 15.8808 26.8434
H 7.39062 16.2463 24.9182
H 8.62838 15.7271 25.8206
H 7.08437 15.2546 27.6952
H 6.91767 16.8561 27.1895
C 5.22217 15.893 26.7152
C 4.75152 16.7548 25.5482
H 4.8871 16.5031 27.5527
H 4.82255 14.8769 26.7694
H 3.78355 17.2704 25.7706
H 5.4897 17.4921 25.3584
C 4.53691 15.904 24.2745
C 3.14412 15.2027 24.3313
H 5.22598 15.0407 23.9742
H 4.62787 16.511 23.3515
H 3.13159 14.6139 25.2364
H 2.41995 15.9628 24.4727
C 2.82261 14.4053 23.1153
C 1.40365 13.9586 23.3254
H 3.54893 13.6613 23.0084
H 2.95037 15.0423 22.2163
H 1.28257 13.2857 24.1834
H 0.646678 14.8013 23.5791
C 1.00944 13.2252 22.0623
C 38.1782 12.6485 22.2271
H 1.68392 12.4023 21.9329
H 1.09932 13.9538 21.2608
H 38.2216 11.9368 23.0954
H 37.4738 13.4338 22.4404
C 37.7656 11.8235 20.9832
C 38.3801 10.4389 20.7231
H 37.8672 12.4991 20.1551
H 36.6751 11.63 21.163
H 0.817256 10.5949 20.4156
H 38.5098 9.84357 21.6318
C 37.5772 9.71801 19.7094
C 38.4336 8.54205 19.2323
H 37.249 10.316 18.8936
H 36.7496 9.30404 20.2018
H 0.686523 8.88664 18.6473
H 0.276484 7.92294 20.0235
C 37.6803 7.6388 18.2652
C 38.4819 6.41708 17.7645
H 37.3494 8.20804 17.4033
H 36.7993 7.2222 18.7627
H 0.899548 6.69879 17.3467
H 0.270695 5.739 18.5142
C 37.6948 5.66405 16.7038
C 36.4361 4.9983 17.3839
H 38.282 4.86148 16.3299
H 37.3839 6.23388 15.9343
H 36.7325 4.18573 18.119
H 35.8352 5.70447 17.9301
C 35.516 4.39157 16.2788
C 34.5616 3.31376 16.7957
H 36.1441 4.05347 15.4658
H 34.9768 5.3152 15.8537
H 34.0955 2.75254 16.033
H 35.105 2.63461 17.4942
C 33.3774 3.98098 17.5954
C 32.4864 4.87829 16.636
H 33.7798 4.71395 18.3317
H 32.7499 3.21398 18.1043
H 32.9676 4.9554 15.6434
H 31.6233 4.30477 16.3616
C 32.1932 6.25196 17.1473
C 31.1217 6.85753 16.2902
H 33.1638 6.76295 17.368
H 31.7308 6.13606 18.1148
H 31.5328 7.09608 15.346
H 30.2675 6.15663 16.1039
C 30.6697 8.21398 16.84
C 29.8857 9.05461 15.8345
H 31.5091 8.85772 17.0089
H 30.0998 8.03903 17.769
H 30.5331 9.28254 14.9408
H 29.0869 8.40409 15.4611
C 29.1944 10.2386 16.4459
C 30.0571 11.5252 16.7674
H 28.8055 9.79448 17.3187
H 28.4008 10.5417 15.8088
H 30.9929 11.2778 17.1988
H 30.3581 11.8521 15.7884
C 29.1693 12.5469 17.5281
C 30.0434 13.7706 17.9971
H 28.7193 12.0668 18.4522
H 28.3177 12.8924 16.9489
H 30.7196 14.055 17.25
H 29.4219 14.63 18.3145
C 31.0045 13.4567 19.1502
C 32.0288 14.5647 19.3639
H 31.5009 12.5293 19.0771
H 30.4639 13.3222 20.1784
H 32.5639 14.7925 18.4414
H 31.5457 15.5169 19.6078
C 33.0555 14.283 20.4261
C 33.8398 15.4696 20.9781
H 33.7131 13.5075 20.2223
H 32.5668 13.8767 21.3171
H 34.5754 15.713 20.3195
H 33.3121 16.3789 21.0468
C 34.57 15.1402 22.2711
C 35.7117 16.0189 22.6159
H 35.0374 14.1995 22.2288
H 33.7993 15.0603 23.0626
H 36.391 15.861 21.7865
H 35.3796 17.0014 22.4427
C 36.431 15.7676 23.9911
C 37.3475 17.0334 24.4056
H 37.0584 14.8457 23.9794
H 35.7926 15.6245 24.8605
H 38.1287 17.1491 23.6392