 +-------------------------------------------------+
 |                                                 |
 |      CCC   AA    SSS  TTTTT  EEEEE  PPPP        |
 |     C     A  A  S       T    E      P   P       |
 |     C     AAAA   SS     T    EEE    PPPP        |
 |     C     A  A     S    T    E      P           |
 |      CCC  A  A  SSS     T    EEEEE  P           |
 |                                                 |
 +-------------------------------------------------+
 |                                                 |
 | Welcome to Academic Release CASTEP version 7.03 |
 | Ab Initio Total Energy Program                  |
 |                                                 |
 | Authors:                                        |
 | M. Segall, M. Probert, C. Pickard, P. Hasnip,   |
 | S. Clark, K. Refson, J. R. Yates, M. Payne      |
 |                                                 |
 | Contributors:                                   |
 | P. Lindan, P. Haynes, J. White, V. Milman,      |
 | N. Govind, M. Gibson, P. Tulip, V. Cocula,      |
 | B. Montanari, D. Quigley, M. Glover,            |
 | L. Bernasconi, A. Perlov, M. Plummer,           |
 | E. McNellis, J. Meyer, J. Gale, D. Jochym       |
 | J. Aarons, B. Walker, R. Gillen, D. Jones       |
 |                                                 |
 | Copyright (c) 2000 - 2013                       |
 |                                                 |
 |     Distributed under the terms of an           |
 |     Agreement between the United Kingdom        |
 |     Car-Parrinello (UKCP) Consortium,           |
 |     Daresbury Laboratory and Accelrys, Inc.     |
 |                                                 |
 | Please cite                                     |
 |                                                 |
 |     "First principles methods using CASTEP"     |
 |                                                 |
 |         Zeitschrift fuer Kristallographie       |
 |           220(5-6) pp. 567-570 (2005)           |
 |                                                 |
 | S. J. Clark, M. D. Segall, C. J. Pickard,       |
 | P. J. Hasnip, M. J. Probert, K. Refson,         |
 | M. C. Payne                                     |
 |                                                 |
 |       in all publications arising from          |
 |              your use of CASTEP                 |
 |                                                 |
 +-------------------------------------------------+
 
 
 Compiled for linux_x86_64_ifort14 on Fri, 04 Jul 2014 16:20:16 +0100
 from code version 824badb45ac0+ Castep70_branch Thu, 05 Jun 2014 11:49:23 +0100
 Compiler: Intel Fortran 14.0.1.106; Optimisation: fast
 MATHLIBS: Intel MKL(11.0.0) (LAPACK version 3.4.1)
 FFT Lib : mkl
 
 Run started: Sat, 11 Jun 2016 18:31:21 +0100
 
 Atomic calculation performed for H: 1s1
 
 Converged in 41 iterations to an ae energy of -12.488 eV
 
   ============================================================                
   | Pseudopotential Report - Date of generation 11-06-2016   |                
   ------------------------------------------------------------                
   | Element: H Ionic charge:  1.00 Level of theory: PBE      |                
   |                                                          |                
   |               Reference Electronic Structure             |                
   |         Orbital         Occupation         Energy        |                
   |            1s              1.000           -0.239        |                
   |                                                          |                
   |                 Pseudopotential Definition               |                
   |        Beta     l      e      Rc     scheme   norm       |                
   |          1      0   -0.239   0.803     qc      0         |                
   |          2      0    0.250   0.803     qc      0         |                
   |         loc     1    0.000   0.803     pn      0         |                
   |                                                          |                
   | Augmentation charge Rinner = 0.599                       |                
   | No partial core correction                               |                
   ------------------------------------------------------------                
   | "1|0.8|0.8|0.6|2|6|8|10(qc=6)"                           |                
   ------------------------------------------------------------                
   |      Author: Chris J. Pickard, Cambridge University      |                
   ============================================================                
 
 Atomic calculation performed for C: 1s2 2s2 2p2
 
 Converged in 54 iterations to an ae energy of -1027.632 eV
 
   ============================================================                
   | Pseudopotential Report - Date of generation 11-06-2016   |                
   ------------------------------------------------------------                
   | Element: C Ionic charge:  4.00 Level of theory: PBE      |                
   |                                                          |                
   |               Reference Electronic Structure             |                
   |         Orbital         Occupation         Energy        |                
   |            2s              2.000           -0.505        |                
   |            2p              2.000           -0.194        |                
   |                                                          |                
   |                 Pseudopotential Definition               |                
   |        Beta     l      e      Rc     scheme   norm       |                
   |          1      0   -0.505   1.395     qc      0         |                
   |          2      0    0.250   1.395     qc      0         |                
   |          3      1   -0.194   1.395     qc      0         |                
   |          4      1    0.250   1.395     qc      0         |                
   |         loc     2    0.000   1.395     pn      0         |                
   |                                                          |                
   | Augmentation charge Rinner = 1.305                       |                
   | Partial core correction Rc = 1.305                       |                
   ------------------------------------------------------------                
   | "2|1.4|1.4|1.3|6|10|12|20:21(qc=6)"                      |                
   ------------------------------------------------------------                
   |      Author: Chris J. Pickard, Cambridge University      |                
   ============================================================                
 
 Pseudo atomic calculation performed for H 1s1
 
 Converged in 12 iterations to a total energy of -12.4840 eV
 
 
 Pseudo atomic calculation performed for C 2s2 2p2
 
 Converged in 17 iterations to a total energy of -146.3556 eV
 
 Calculation parallelised over 20 processes.
 Data is distributed by G-vector(20-way)

 ************************************ Title ************************************
 

 ***************************** General Parameters ******************************
  
 output verbosity                               : normal  (1)
 write checkpoint data to                       : Butane_66_CNT_cluster_convergence.Butane-2_flakes.check
 type of calculation                            : geometry optimization
 stress calculation                             : off
 density difference calculation                 : off
 electron localisation func (ELF) calculation   : off
 Hirshfeld analysis                             : off
 unlimited duration calculation
 timing information                             : on
 memory usage estimate                          : on
 write final potential to formatted file        : off
 write final density to formatted file          : off
 write structure in CELL formatted file         : on
 write BibTeX reference list                    : on
  
 output         length unit                     : A
 output           mass unit                     : amu
 output           time unit                     : ps
 output         charge unit                     : e
 output         energy unit                     : eV
 output          force unit                     : eV/A
 output       velocity unit                     : A/ps
 output       pressure unit                     : GPa
 output     inv_length unit                     : 1/A
 output      frequency unit                     : cm-1
 output force constant unit                     : eV/A**2
 output         volume unit                     : A**3
 output   IR intensity unit                     : (D/A)**2/amu
 output         dipole unit                     : D
 output         efield unit                     : eV/A/e
 output        entropy unit                     : J/mol/K
  
 wavefunctions paging                           : none
 random number generator seed                   : randomised (183121329)
 data distribution                              : optimal for this architecture
 optimization strategy                          : maximize speed(+++)

 *********************** Exchange-Correlation Parameters ***********************
  
 using functional                               : Perdew Burke Ernzerhof
 Divergence correction                          : off
 DFT+D: Semi-empirical dispersion correction    : off

 ************************* Pseudopotential Parameters **************************
  
 pseudopotential representation                 : reciprocal space
 <beta|phi> representation                      : reciprocal space

 **************************** Basis Set Parameters *****************************
  
 plane wave basis set cut-off                   :   600.0000   eV
 size of standard grid                          :     2.0000
 size of   fine   gmax                          :    25.0983   1/A
 largest prime factor in FFT                    :          5
 finite basis set correction                    : none

 **************************** Electronic Parameters ****************************
  
 number of  electrons                           :  78.00    
 net charge of system                           :  0.000    
 net spin   of system                           :  0.000    
 number of  up  spins                           :  39.00    
 number of down spins                           :  39.00    
 treating system as non-spin-polarized
 number of bands                                :         47

 ********************* Electronic Minimization Parameters **********************
  
 Method: Treating system as metallic with density mixing treatment of electrons,
         and number of  SD  steps               :          1
         and number of  CG  steps               :          4
  
 total energy / atom convergence tol.           : 0.1000E-04   eV
 eigen-energy convergence tolerance             : 0.1000E-05   eV
 max force / atom convergence tol.              : ignored
 convergence tolerance window                   :          3   cycles
 max. number of SCF cycles                      :         50
 number of fixed-spin iterations                :         10
 smearing scheme                                : Gaussian
 smearing width                                 : 0.2000       eV
 Fermi energy convergence tolerance             : 0.2721E-13   eV
 periodic dipole correction                     : NONE

 ************************** Density Mixing Parameters **************************
  
 density-mixing scheme                          : Broyden
 max. length of mixing history                  :         20
 charge density mixing amplitude                : 0.8000    
 cut-off energy for mixing                      :  600.0       eV
 charge density mixing g-vector                 :  1.500       1/A

 *********************** Population Analysis Parameters ************************
  
 Population analysis with cutoff                :  3.000       A

 ********************** Geometry Optimization Parameters ***********************
  
 optimization method                            : BFGS
 variable cell method                           : fixed basis quality
 max. number of steps                           :        100
 estimated bulk modulus                         :  500.0       GPa
 estimated <frequency>                          :  1668.       cm-1
 geom line minimiser                            : on
 with line minimiser tolerance                  :     0.4000
 total energy convergence tolerance             : 0.2000E-04   eV/atom
        max ionic |force| tolerance             : 0.5000E-01   eV/A
 max ionic |displacement| tolerance             : 0.1000E-02   A
   max |stress component| tolerance             : 0.1000       GPa
 convergence tolerance window                   :          2   steps
 backup results every                           :      14400   seconds

 *******************************************************************************
  
 
                           -------------------------------
                                      Unit Cell
                           -------------------------------
        Real Lattice(A)                      Reciprocal Lattice(1/A)
  25.0000001   0.0000000   0.0000000        0.2513274   0.0000000   0.0000000
   0.0000000  20.0000001   0.0000000        0.0000000   0.3141593   0.0000000
   0.0000000   0.0000000  12.2975001        0.0000000   0.0000000   0.5109319
 
                       Lattice parameters(A)       Cell Angles
                    a =   25.000000          alpha =   90.000000
                    b =   20.000000          beta  =   90.000000
                    c =   12.297500          gamma =   90.000000
 
                       Current cell volume = 6148.750098       A**3
 
                           -------------------------------
                                     Cell Contents
                           -------------------------------
                         Total number of ions in cell =   33
                      Total number of species in cell =    2
                        Max number of any one species =   18
 
            xxxxxxxxxxxxxxxxxxxxxxxxxxxxxxxxxxxxxxxxxxxxxxxxxxxxxxxxxxxx
            x  Element    Atom        Fractional coordinates of atoms  x
            x            Number           u          v          w      x
            x----------------------------------------------------------x
            x  H            1         0.205623   0.503383   0.590767   x 
            x  H            2         0.174240   0.541620   0.371182   x 
            x  H            3         0.244279   0.533836   0.376730   x 
            x  H            4         0.247586   0.605997   0.541618   x 
            x  H            5         0.177313   0.609928   0.545813   x 
            x  H            6         0.175759   0.671340   0.369638   x 
            x  H            7         0.246065   0.666619   0.361114   x 
            x  H            8         0.218245   0.778245   0.437866   x 
            x  H            9         0.183044   0.737287   0.543875   x 
            x  H           10         0.253738   0.731775   0.537563   x 
            x  H           11         0.102739   0.400569   0.357236   x 
            x  H           12         0.274147   0.363388   0.355807   x 
            x  H           13         0.150685   0.401972   0.776368   x 
            x  H           14         0.228828   0.384976   0.776727   x 
            x  H           15         0.101699   0.399443   0.648606   x 
            x  H           16         0.274608   0.361748   0.649204   x 
            x  H           17         0.151368   0.402737   0.231428   x 
            x  H           18         0.228618   0.386045   0.230735   x 
            x  C            1         0.202424   0.482454   0.508505   x 
            x  C            2         0.208408   0.540435   0.427456   x 
            x  C            3         0.211623   0.606679   0.489572   x 
            x  C            4         0.212510   0.669413   0.419022   x 
            x  C            5         0.217138   0.732781   0.487809   x 
            x  C            6         0.153461   0.439632   0.504579   x 
            x  C            7         0.237486   0.421875   0.504013   x 
            x  C            8         0.132743   0.417006   0.403899   x 
            x  C            9         0.250971   0.391664   0.403534   x 
            x  C           10         0.164133   0.416119   0.703322   x 
            x  C           11         0.220923   0.403864   0.703170   x 
            x  C           12         0.132491   0.416485   0.604720   x 
            x  C           13         0.250855   0.391071   0.604409   x 
            x  C           14         0.164304   0.416333   0.305130   x 
            x  C           15         0.220974   0.404155   0.304921   x 
            xxxxxxxxxxxxxxxxxxxxxxxxxxxxxxxxxxxxxxxxxxxxxxxxxxxxxxxxxxxx
 
 
                         No user defined ionic velocities
 
                           -------------------------------
                                   Details of Species
                           -------------------------------
 
                               Mass of species in AMU
                                    H    1.0079400
                                    C   12.0107000
 
                          Electric Quadrupole Moment (Barn)
                                    H    0.0028600 Isotope  2
                                    C    0.0332700 Isotope 11
 
                          Files used for pseudopotentials:
                                    H Pseudopotential generated on-the-fly
                                    C Pseudopotential generated on-the-fly
 
                           -------------------------------
                              k-Points For BZ Sampling
                           -------------------------------
                       MP grid size for SCF calculation is  1  1  1
                         Number of kpoints used =           1
 
             +++++++++++++++++++++++++++++++++++++++++++++++++++++++
             +  Number       Fractional coordinates        Weight  +
             +-----------------------------------------------------+
             +     1   0.000000   0.000000   0.000000   1.0000000  +
             +++++++++++++++++++++++++++++++++++++++++++++++++++++++
 
                           -------------------------------
                               Symmetry and Constraints
                           -------------------------------
 
                      Maximum deviation from symmetry =  0.00000         ANG
 
         There are no symmetry operations specified or generated for this cell
                      Number of ionic constraints     =          75
                      Point group of crystal =     1: C1, 1, 1
 
 
                         Centre of mass is NOT constrained
             Set iprint > 1 for details of linear ionic constraints
 
                         Number of cell constraints= 6
                         Cell constraints are:  0 0 0 0 0 0
 
                         External pressure/stress (GPa)
                          0.00000   0.00000   0.00000
                                    0.00000   0.00000
                                              0.00000
  
+---------------- MEMORY AND SCRATCH DISK ESTIMATES PER PROCESS --------------+
|                                                     Memory          Disk    |
| Model and support data                              124.8 MB         0.0 MB |
| Electronic energy minimisation requirements          26.6 MB         0.0 MB |
|                                               ----------------------------- |
| Approx. total storage required per process          151.4 MB         0.0 MB |
|                                                                             |
| Requirements will fluctuate during execution and may exceed these estimates |
+-----------------------------------------------------------------------------+
------------------------------------------------------------------------ <-- SCF
SCF loop      Energy           Fermi           Energy gain       Timer   <-- SCF
                               energy          per atom          (sec)   <-- SCF
------------------------------------------------------------------------ <-- SCF
Initial  -2.04146101E+001  0.00000000E+000                         6.39  <-- SCF
      1  -2.05833878E+003  3.96136453E+000   6.17552777E+001      12.54  <-- SCF
      2  -2.61113564E+003 -7.53945653E+000   1.67514202E+001      16.40  <-- SCF
      3  -2.63445220E+003 -7.82135512E+000   7.06562325E-001      20.22  <-- SCF
      4  -2.61610922E+003 -5.37194214E+000  -5.55847972E-001      26.14  <-- SCF
      5  -2.61499041E+003 -4.94540456E+000  -3.39031161E-002      32.09  <-- SCF
      6  -2.61457629E+003 -4.55730974E+000  -1.25491862E-002      38.14  <-- SCF
      7  -2.61442170E+003 -4.35370573E+000  -4.68463406E-003      44.27  <-- SCF
      8  -2.61433141E+003 -4.12849554E+000  -2.73586441E-003      50.54  <-- SCF
      9  -2.61422302E+003 -3.86697825E+000  -3.28460497E-003      56.79  <-- SCF
     10  -2.61420264E+003 -3.73235984E+000  -6.17492377E-004      63.09  <-- SCF
     11  -2.61421666E+003 -3.65162470E+000   4.24638103E-004      69.21  <-- SCF
     12  -2.61423671E+003 -3.56545462E+000   6.07536585E-004      75.24  <-- SCF
     13  -2.61426069E+003 -3.50125030E+000   7.26890625E-004      81.11  <-- SCF
     14  -2.61427356E+003 -3.46279944E+000   3.89936978E-004      87.12  <-- SCF
     15  -2.61428046E+003 -3.43066693E+000   2.09032690E-004      92.83  <-- SCF
     16  -2.61428548E+003 -3.40273821E+000   1.52187279E-004      98.45  <-- SCF
     17  -2.61428666E+003 -3.37044410E+000   3.58188281E-005     103.80  <-- SCF
     18  -2.61428783E+003 -3.35662290E+000   3.52716869E-005     109.00  <-- SCF
     19  -2.61428757E+003 -3.32500021E+000  -7.82465332E-006     114.28  <-- SCF
     20  -2.61428992E+003 -3.31886342E+000   7.13518258E-005     119.14  <-- SCF
     21  -2.61429223E+003 -3.30727000E+000   6.99418481E-005     124.26  <-- SCF
     22  -2.61429311E+003 -3.29356973E+000   2.65764957E-005     129.43  <-- SCF
     23  -2.61429432E+003 -3.29576721E+000   3.65678883E-005     134.22  <-- SCF
     24  -2.61429459E+003 -3.28586859E+000   8.22791660E-006     139.23  <-- SCF
     25  -2.61429522E+003 -3.28317690E+000   1.91453011E-005     144.34  <-- SCF
     26  -2.61429599E+003 -3.28227807E+000   2.34586543E-005     149.21  <-- SCF
     27  -2.61429641E+003 -3.27976182E+000   1.24981543E-005     154.30  <-- SCF
     28  -2.61429677E+003 -3.27968471E+000   1.11713344E-005     159.14  <-- SCF
     29  -2.61429697E+003 -3.27859893E+000   5.86224720E-006     164.22  <-- SCF
     30  -2.61429720E+003 -3.27841616E+000   7.15824229E-006     169.00  <-- SCF
     31  -2.61429734E+003 -3.27837201E+000   4.23918713E-006     173.80  <-- SCF
     32  -2.61429743E+003 -3.27801183E+000   2.55080433E-006     178.97  <-- SCF
------------------------------------------------------------------------ <-- SCF
 
Final energy, E             =  -2614.297428338     eV
Final free energy (E-TS)    =  -2614.297428338     eV
(energies not corrected for finite basis set)
 
NB est. 0K energy (E-0.5TS)      =  -2614.297428338     eV
 

Writing analysis data to Butane_66_CNT_cluster_convergence.Butane-2_flakes.castep_bin

Writing model to Butane_66_CNT_cluster_convergence.Butane-2_flakes.check
 
+---------------- MEMORY AND SCRATCH DISK ESTIMATES PER PROCESS --------------+
|                                                     Memory          Disk    |
| Model and support data                              124.8 MB         0.0 MB |
| Electronic energy minimisation requirements          26.6 MB         0.0 MB |
| Geometry minimisation requirements                   33.1 MB         0.0 MB |
|                                               ----------------------------- |
| Approx. total storage required per process          184.6 MB         0.0 MB |
|                                                                             |
| Requirements will fluctuate during execution and may exceed these estimates |
+-----------------------------------------------------------------------------+
 
 
 *********************************** Forces ***********************************
 *                                                                            *
 *                        Cartesian components (eV/A)                         *
 * -------------------------------------------------------------------------- *
 *                   x                    y                    z              *
 *                                                                            *
 * H         1     -0.02198(cons'd)     -0.12449(cons'd)     -0.00482(cons'd) *
 * H         2      0.02043(cons'd)     -0.03178(cons'd)      0.01021(cons'd) *
 * H         3     -0.01235(cons'd)     -0.02031(cons'd)      0.02837(cons'd) *
 * H         4      0.01157(cons'd)      0.02471(cons'd)      0.01561(cons'd) *
 * H         5     -0.01541(cons'd)      0.00837(cons'd)      0.00583(cons'd) *
 * H         6     -0.00116(cons'd)      0.00403(cons'd)     -0.03258(cons'd) *
 * H         7      0.02019(cons'd)      0.00727(cons'd)     -0.01776(cons'd) *
 * H         8      0.00374(cons'd)      0.01457(cons'd)     -0.03745(cons'd) *
 * H         9     -0.00257(cons'd)      0.00716(cons'd)      0.00438(cons'd) *
 * H        10     -0.01652(cons'd)      0.02197(cons'd)     -0.02070(cons'd) *
 * H        11     -5.13007             -1.53732              0.42359         *
 * H        12      4.36418             -3.25038              0.40904         *
 * H        13     -2.43999             -0.80338              3.35993         *
 * H        14      2.10963             -1.62540              3.36407         *
 * H        15     -4.92795             -1.61323             -0.45159         *
 * H        16      4.13880             -3.24090             -0.44683         *
 * H        17     -2.52356             -0.78214             -3.36327         *
 * H        18      2.15969             -1.61347             -3.38181         *
 * C         1     -0.02778(cons'd)     -0.16323(cons'd)     -0.06406(cons'd) *
 * C         2      0.02183(cons'd)     -0.01378(cons'd)     -0.02224(cons'd) *
 * C         3      0.00754(cons'd)     -0.02617(cons'd)      0.03897(cons'd) *
 * C         4      0.00632(cons'd)     -0.00895(cons'd)      0.04600(cons'd) *
 * C         5      0.02017(cons'd)     -0.01176(cons'd)     -0.00141(cons'd) *
 * C         6     -2.70750(cons'd)     -1.34602(cons'd)     -0.03881(cons'd) *
 * C         7      2.07728(cons'd)     -2.18776(cons'd)     -0.02022(cons'd) *
 * C         8      4.53970(cons'd)      2.25034(cons'd)     -2.22842(cons'd) *
 * C         9     -3.48823(cons'd)      3.70052(cons'd)     -2.21098(cons'd) *
 * C        10      3.19972(cons'd)      1.01170(cons'd)     -5.40266(cons'd) *
 * C        11     -2.80818(cons'd)      2.09420(cons'd)     -5.33296(cons'd) *
 * C        12      4.51303(cons'd)      2.28464(cons'd)      2.31596(cons'd) *
 * C        13     -3.48836(cons'd)      3.72851(cons'd)      2.26824(cons'd) *
 * C        14      3.43807(cons'd)      1.02354(cons'd)      5.43735(cons'd) *
 * C        15     -3.04027(cons'd)      2.21893(cons'd)      5.35104(cons'd) *
 *                                                                            *
 ******************************************************************************
 BFGS: finished iteration     0 with enthalpy= -2.61429743E+003 eV
  
 +-----------+-----------------+-----------------+------------+-----+ <-- BFGS
 | Parameter |      value      |    tolerance    |    units   | OK? | <-- BFGS
 +-----------+-----------------+-----------------+------------+-----+ <-- BFGS
 |  dE/ion   |   0.000000E+000 |   2.000000E-005 |         eV | No  | <-- BFGS
 |  |F|max   |   5.456951E+000 |   5.000000E-002 |       eV/A | No  | <-- BFGS
 |  |dR|max  |   0.000000E+000 |   1.000000E-003 |          A | No  | <-- BFGS
 +-----------+-----------------+-----------------+------------+-----+ <-- BFGS
  

================================================================================
 Starting BFGS iteration          1 ...
================================================================================
  
 +------------+-------------+-------------+-----------------+ <-- min BFGS
 |    Step    |   lambda    |   F.delta   |    enthalpy     | <-- min BFGS
 +------------+-------------+-------------+-----------------+ <-- min BFGS
 |  previous  |    0.000000 |    0.111713 |    -2614.297428 | <-- min BFGS
 +------------+-------------+-------------+-----------------+ <-- min BFGS
  

--------------------------------------------------------------------------------
 BFGS: starting iteration         1 with trial guess (lambda=  1.000000)
--------------------------------------------------------------------------------
 
                           -------------------------------
                                     Cell Contents
                           -------------------------------
 
            xxxxxxxxxxxxxxxxxxxxxxxxxxxxxxxxxxxxxxxxxxxxxxxxxxxxxxxxxxxx
            x  Element    Atom        Fractional coordinates of atoms  x
            x            Number           u          v          w      x
            x----------------------------------------------------------x
            x  H            1         0.205623   0.503383   0.590767   x
            x  H            2         0.174240   0.541620   0.371182   x
            x  H            3         0.244279   0.533836   0.376730   x
            x  H            4         0.247586   0.605997   0.541618   x
            x  H            5         0.177313   0.609928   0.545813   x
            x  H            6         0.175759   0.671340   0.369638   x
            x  H            7         0.246065   0.666619   0.361114   x
            x  H            8         0.218245   0.778245   0.437866   x
            x  H            9         0.183044   0.737287   0.543875   x
            x  H           10         0.253738   0.731775   0.537563   x
            x  H           11         0.099401   0.399319   0.357796   x
            x  H           12         0.276987   0.360744   0.356348   x
            x  H           13         0.149097   0.401318   0.780813   x
            x  H           14         0.230201   0.383654   0.781177   x
            x  H           15         0.098493   0.398130   0.648009   x
            x  H           16         0.277302   0.359112   0.648613   x
            x  H           17         0.149726   0.402101   0.226978   x
            x  H           18         0.230023   0.384733   0.226261   x
            x  C            1         0.202424   0.482454   0.508505   x
            x  C            2         0.208408   0.540435   0.427456   x
            x  C            3         0.211623   0.606679   0.489572   x
            x  C            4         0.212510   0.669413   0.419022   x
            x  C            5         0.217138   0.732781   0.487809   x
            x  C            6         0.153461   0.439632   0.504579   x
            x  C            7         0.237486   0.421875   0.504013   x
            x  C            8         0.132743   0.417006   0.403899   x
            x  C            9         0.250971   0.391664   0.403534   x
            x  C           10         0.164133   0.416119   0.703322   x
            x  C           11         0.220923   0.403864   0.703170   x
            x  C           12         0.132491   0.416485   0.604720   x
            x  C           13         0.250855   0.391071   0.604409   x
            x  C           14         0.164304   0.416333   0.305130   x
            x  C           15         0.220974   0.404155   0.304921   x
            xxxxxxxxxxxxxxxxxxxxxxxxxxxxxxxxxxxxxxxxxxxxxxxxxxxxxxxxxxxx
 
 
------------------------------------------------------------------------ <-- SCF
SCF loop      Energy           Fermi           Energy gain       Timer   <-- SCF
                               energy          per atom          (sec)   <-- SCF
------------------------------------------------------------------------ <-- SCF
Initial  -2.60638565E+003  0.00000000E+000                       187.43  <-- SCF
      1  -2.61644203E+003 -3.08635081E+000   3.04738785E-001     191.70  <-- SCF
      2  -2.61645888E+003 -3.08663869E+000   5.10762086E-004     198.50  <-- SCF
      3  -2.61636808E+003 -3.28095464E+000  -2.75148874E-003     204.61  <-- SCF
      4  -2.61636633E+003 -3.25002371E+000  -5.32013789E-005     210.62  <-- SCF
      5  -2.61636493E+003 -3.26243518E+000  -4.23196126E-005     216.66  <-- SCF
      6  -2.61636519E+003 -3.26645366E+000   7.75020214E-006     221.70  <-- SCF
      7  -2.61636535E+003 -3.26839755E+000   5.03499322E-006     226.61  <-- SCF
      8  -2.61636554E+003 -3.27031590E+000   5.82416828E-006     231.59  <-- SCF
      9  -2.61636578E+003 -3.27318750E+000   7.17757785E-006     236.57  <-- SCF
     10  -2.61636586E+003 -3.27397959E+000   2.41101850E-006     241.70  <-- SCF
     11  -2.61636596E+003 -3.27502887E+000   3.13888544E-006     246.76  <-- SCF
------------------------------------------------------------------------ <-- SCF
 
Final energy, E             =  -2616.365964250     eV
Final free energy (E-TS)    =  -2616.365964250     eV
(energies not corrected for finite basis set)
 
NB est. 0K energy (E-0.5TS)      =  -2616.365964250     eV
 
 
 *********************************** Forces ***********************************
 *                                                                            *
 *                        Cartesian components (eV/A)                         *
 * -------------------------------------------------------------------------- *
 *                   x                    y                    z              *
 *                                                                            *
 * H         1     -0.02103(cons'd)     -0.12115(cons'd)      0.00099(cons'd) *
 * H         2      0.02183(cons'd)     -0.03083(cons'd)      0.01166(cons'd) *
 * H         3     -0.01308(cons'd)     -0.01973(cons'd)      0.02979(cons'd) *
 * H         4      0.01182(cons'd)      0.02461(cons'd)      0.01568(cons'd) *
 * H         5     -0.01552(cons'd)      0.00845(cons'd)      0.00592(cons'd) *
 * H         6     -0.00107(cons'd)      0.00383(cons'd)     -0.03263(cons'd) *
 * H         7      0.02023(cons'd)      0.00706(cons'd)     -0.01781(cons'd) *
 * H         8      0.00382(cons'd)      0.01424(cons'd)     -0.03765(cons'd) *
 * H         9     -0.00263(cons'd)      0.00716(cons'd)      0.00450(cons'd) *
 * H        10     -0.01621(cons'd)      0.02195(cons'd)     -0.02060(cons'd) *
 * H        11     -2.33272             -0.41471              1.92088         *
 * H        12      2.13159             -1.21738              1.95684         *
 * H        13     -1.21148              0.04099              0.61509         *
 * H        14      1.27987             -0.40949              0.59306         *
 * H        15     -2.12811             -0.46283             -1.83595         *
 * H        16      1.91665             -1.17560             -1.87119         *
 * H        17     -1.30787              0.03277             -0.58940         *
 * H        18      1.33423             -0.43619             -0.58261         *
 * C         1     -0.03114(cons'd)     -0.18759(cons'd)     -0.06585(cons'd) *
 * C         2      0.02316(cons'd)     -0.00385(cons'd)     -0.02893(cons'd) *
 * C         3      0.00756(cons'd)     -0.02575(cons'd)      0.04170(cons'd) *
 * C         4      0.00634(cons'd)     -0.00851(cons'd)      0.04373(cons'd) *
 * C         5      0.02038(cons'd)     -0.01178(cons'd)     -0.00049(cons'd) *
 * C         6     -2.68833(cons'd)     -1.30736(cons'd)     -0.03101(cons'd) *
 * C         7      2.07589(cons'd)     -2.14402(cons'd)     -0.01209(cons'd) *
 * C         8      2.10254(cons'd)      1.19936(cons'd)     -3.82877(cons'd) *
 * C         9     -1.58659(cons'd)      1.86975(cons'd)     -3.86784(cons'd) *
 * C        10      1.83433(cons'd)      0.04663(cons'd)     -2.68075(cons'd) *
 * C        11     -1.87888(cons'd)      0.71474(cons'd)     -2.60755(cons'd) *
 * C        12      2.03140(cons'd)      1.20314(cons'd)      3.78070(cons'd) *
 * C        13     -1.55483(cons'd)      1.84611(cons'd)      3.77681(cons'd) *
 * C        14      2.06045(cons'd)      0.07855(cons'd)      2.70255(cons'd) *
 * C        15     -2.09260(cons'd)      0.85746(cons'd)      2.61121(cons'd) *
 *                                                                            *
 ******************************************************************************
  
 +------------+-------------+-------------+-----------------+ <-- min BFGS
 |    Step    |   lambda    |   F.delta   |    enthalpy     | <-- min BFGS
 +------------+-------------+-------------+-----------------+ <-- min BFGS
 |  previous  |    0.000000 |    0.111713 |    -2614.297428 | <-- min BFGS
 | trial step |    1.000000 |    0.043813 |    -2616.365964 | <-- min BFGS
 +------------+-------------+-------------+-----------------+ <-- min BFGS
  

--------------------------------------------------------------------------------
 BFGS: improving iteration         1 with line minimization (lambda=  1.645252)
--------------------------------------------------------------------------------
 
                           -------------------------------
                                     Cell Contents
                           -------------------------------
 
            xxxxxxxxxxxxxxxxxxxxxxxxxxxxxxxxxxxxxxxxxxxxxxxxxxxxxxxxxxxx
            x  Element    Atom        Fractional coordinates of atoms  x
            x            Number           u          v          w      x
            x----------------------------------------------------------x
            x  H            1         0.205623   0.503383   0.590767   x
            x  H            2         0.174240   0.541620   0.371182   x
            x  H            3         0.244279   0.533836   0.376730   x
            x  H            4         0.247586   0.605997   0.541618   x
            x  H            5         0.177313   0.609928   0.545813   x
            x  H            6         0.175759   0.671340   0.369638   x
            x  H            7         0.246065   0.666619   0.361114   x
            x  H            8         0.218245   0.778245   0.437866   x
            x  H            9         0.183044   0.737287   0.543875   x
            x  H           10         0.253738   0.731775   0.537563   x
            x  H           11         0.097247   0.398512   0.358158   x
            x  H           12         0.278820   0.359038   0.356697   x
            x  H           13         0.148073   0.400896   0.783681   x
            x  H           14         0.231087   0.382801   0.784049   x
            x  H           15         0.096423   0.397284   0.647623   x
            x  H           16         0.279040   0.357411   0.648232   x
            x  H           17         0.148666   0.401691   0.224108   x
            x  H           18         0.230930   0.383886   0.223374   x
            x  C            1         0.202424   0.482454   0.508505   x
            x  C            2         0.208408   0.540435   0.427456   x
            x  C            3         0.211623   0.606679   0.489572   x
            x  C            4         0.212510   0.669413   0.419022   x
            x  C            5         0.217138   0.732781   0.487809   x
            x  C            6         0.153461   0.439632   0.504579   x
            x  C            7         0.237486   0.421875   0.504013   x
            x  C            8         0.132743   0.417006   0.403899   x
            x  C            9         0.250971   0.391664   0.403534   x
            x  C           10         0.164133   0.416119   0.703322   x
            x  C           11         0.220923   0.403864   0.703170   x
            x  C           12         0.132491   0.416485   0.604720   x
            x  C           13         0.250855   0.391071   0.604409   x
            x  C           14         0.164304   0.416333   0.305130   x
            x  C           15         0.220974   0.404155   0.304921   x
            xxxxxxxxxxxxxxxxxxxxxxxxxxxxxxxxxxxxxxxxxxxxxxxxxxxxxxxxxxxx
 
 
------------------------------------------------------------------------ <-- SCF
SCF loop      Energy           Fermi           Energy gain       Timer   <-- SCF
                               energy          per atom          (sec)   <-- SCF
------------------------------------------------------------------------ <-- SCF
Initial  -2.61116448E+003  0.00000000E+000                       254.01  <-- SCF
      1  -2.61685507E+003 -3.16525176E+000   1.72441918E-001     258.55  <-- SCF
      2  -2.61686172E+003 -3.16538475E+000   2.01517808E-004     265.48  <-- SCF
      3  -2.61682978E+003 -3.28455471E+000  -9.67735770E-004     271.47  <-- SCF
      4  -2.61682943E+003 -3.26520100E+000  -1.07396949E-005     277.37  <-- SCF
      5  -2.61682895E+003 -3.27288848E+000  -1.43550532E-005     283.33  <-- SCF
      6  -2.61682903E+003 -3.27583962E+000   2.24244897E-006     288.29  <-- SCF
      7  -2.61682910E+003 -3.27746936E+000   2.17247134E-006     292.91  <-- SCF
------------------------------------------------------------------------ <-- SCF
 
Final energy, E             =  -2616.829099181     eV
Final free energy (E-TS)    =  -2616.829099181     eV
(energies not corrected for finite basis set)
 
NB est. 0K energy (E-0.5TS)      =  -2616.829099181     eV
 
 
 *********************************** Forces ***********************************
 *                                                                            *
 *                        Cartesian components (eV/A)                         *
 * -------------------------------------------------------------------------- *
 *                   x                    y                    z              *
 *                                                                            *
 * H         1     -0.02032(cons'd)     -0.11826(cons'd)      0.00525(cons'd) *
 * H         2      0.02192(cons'd)     -0.02979(cons'd)      0.01228(cons'd) *
 * H         3     -0.01276(cons'd)     -0.01916(cons'd)      0.03048(cons'd) *
 * H         4      0.01236(cons'd)      0.02503(cons'd)      0.01602(cons'd) *
 * H         5     -0.01597(cons'd)      0.00903(cons'd)      0.00628(cons'd) *
 * H         6     -0.00105(cons'd)      0.00413(cons'd)     -0.03262(cons'd) *
 * H         7      0.02029(cons'd)      0.00734(cons'd)     -0.01781(cons'd) *
 * H         8      0.00384(cons'd)      0.01425(cons'd)     -0.03762(cons'd) *
 * H         9     -0.00253(cons'd)      0.00739(cons'd)      0.00457(cons'd) *
 * H        10     -0.01623(cons'd)      0.02221(cons'd)     -0.02051(cons'd) *
 * H        11     -0.90639              0.12736              2.49249         *
 * H        12      0.97751             -0.20880              2.54844         *
 * H        13     -0.58105              0.42331             -0.66399         *
 * H        14      0.82618              0.16854             -0.69658         *
 * H        15     -0.71577              0.09305             -2.36111         *
 * H        16      0.78201             -0.15686             -2.41187         *
 * H        17     -0.67653              0.40210              0.70047         *
 * H        18      0.87853              0.12588              0.71846         *
 * C         1     -0.03279(cons'd)     -0.19904(cons'd)     -0.06805(cons'd) *
 * C         2      0.02411(cons'd)      0.00387(cons'd)     -0.03330(cons'd) *
 * C         3      0.00760(cons'd)     -0.02451(cons'd)      0.04430(cons'd) *
 * C         4      0.00625(cons'd)     -0.00852(cons'd)      0.04273(cons'd) *
 * C         5      0.02042(cons'd)     -0.01209(cons'd)     -0.00011(cons'd) *
 * C         6     -2.68145(cons'd)     -1.28673(cons'd)     -0.02702(cons'd) *
 * C         7      2.07811(cons'd)     -2.12157(cons'd)     -0.00820(cons'd) *
 * C         8      0.88795(cons'd)      0.69833(cons'd)     -4.45385(cons'd) *
 * C         9     -0.62622(cons'd)      0.97824(cons'd)     -4.51541(cons'd) *
 * C        10      1.12727(cons'd)     -0.40718(cons'd)     -1.41552(cons'd) *
 * C        11     -1.37090(cons'd)      0.04141(cons'd)     -1.34402(cons'd) *
 * C        12      0.80650(cons'd)      0.68706(cons'd)      4.34737(cons'd) *
 * C        13     -0.58968(cons'd)      0.93371(cons'd)      4.36071(cons'd) *
 * C        14      1.33749(cons'd)     -0.36749(cons'd)      1.43486(cons'd) *
 * C        15     -1.56869(cons'd)      0.18775(cons'd)      1.34290(cons'd) *
 *                                                                            *
 ******************************************************************************
  
 +------------+-------------+-------------+-----------------+ <-- min BFGS
 |    Step    |   lambda    |   F.delta   |    enthalpy     | <-- min BFGS
 +------------+-------------+-------------+-----------------+ <-- min BFGS
 |  previous  |    0.000000 |    0.111713 |    -2614.297428 | <-- min BFGS
 | trial step |    1.000000 |    0.043813 |    -2616.365964 | <-- min BFGS
 |  line step |    1.645252 |    0.010186 |    -2616.829099 | <-- min BFGS
 +------------+-------------+-------------+-----------------+ <-- min BFGS
  
 BFGS: finished iteration     1 with enthalpy= -2.61682910E+003 eV
  
 +-----------+-----------------+-----------------+------------+-----+ <-- BFGS
 | Parameter |      value      |    tolerance    |    units   | OK? | <-- BFGS
 +-----------+-----------------+-----------------+------------+-----+ <-- BFGS
 |  dE/ion   |   7.671730E-002 |   2.000000E-005 |         eV | No  | <-- BFGS
 |  |F|max   |   2.737457E+000 |   5.000000E-002 |       eV/A | No  | <-- BFGS
 |  |dR|max  |   1.460588E-001 |   1.000000E-003 |          A | No  | <-- BFGS
 +-----------+-----------------+-----------------+------------+-----+ <-- BFGS
  

================================================================================
 Starting BFGS iteration          2 ...
================================================================================
  
 +------------+-------------+-------------+-----------------+ <-- min BFGS
 |    Step    |   lambda    |   F.delta   |    enthalpy     | <-- min BFGS
 +------------+-------------+-------------+-----------------+ <-- min BFGS
 |  previous  |    0.000000 |    0.023474 |    -2616.829099 | <-- min BFGS
 +------------+-------------+-------------+-----------------+ <-- min BFGS
  

--------------------------------------------------------------------------------
 BFGS: starting iteration         2 with trial guess (lambda=  1.000000)
--------------------------------------------------------------------------------
 
                           -------------------------------
                                     Cell Contents
                           -------------------------------
 
            xxxxxxxxxxxxxxxxxxxxxxxxxxxxxxxxxxxxxxxxxxxxxxxxxxxxxxxxxxxx
            x  Element    Atom        Fractional coordinates of atoms  x
            x            Number           u          v          w      x
            x----------------------------------------------------------x
            x  H            1         0.205623   0.503383   0.590767   x
            x  H            2         0.174240   0.541620   0.371182   x
            x  H            3         0.244279   0.533836   0.376730   x
            x  H            4         0.247586   0.605997   0.541618   x
            x  H            5         0.177313   0.609928   0.545813   x
            x  H            6         0.175759   0.671340   0.369638   x
            x  H            7         0.246065   0.666619   0.361114   x
            x  H            8         0.218245   0.778245   0.437866   x
            x  H            9         0.183044   0.737287   0.543875   x
            x  H           10         0.253738   0.731775   0.537563   x
            x  H           11         0.095731   0.398301   0.361931   x
            x  H           12         0.280257   0.358164   0.360547   x
            x  H           13         0.147244   0.401105   0.783870   x
            x  H           14         0.232035   0.382608   0.784191   x
            x  H           15         0.095078   0.397026   0.644031   x
            x  H           16         0.280299   0.356586   0.644568   x
            x  H           17         0.147755   0.401885   0.223971   x
            x  H           18         0.231924   0.383658   0.223257   x
            x  C            1         0.202424   0.482454   0.508505   x
            x  C            2         0.208408   0.540435   0.427456   x
            x  C            3         0.211623   0.606679   0.489572   x
            x  C            4         0.212510   0.669413   0.419022   x
            x  C            5         0.217138   0.732781   0.487809   x
            x  C            6         0.153461   0.439632   0.504579   x
            x  C            7         0.237486   0.421875   0.504013   x
            x  C            8         0.132743   0.417006   0.403899   x
            x  C            9         0.250971   0.391664   0.403534   x
            x  C           10         0.164133   0.416119   0.703322   x
            x  C           11         0.220923   0.403864   0.703170   x
            x  C           12         0.132491   0.416485   0.604720   x
            x  C           13         0.250855   0.391071   0.604409   x
            x  C           14         0.164304   0.416333   0.305130   x
            x  C           15         0.220974   0.404155   0.304921   x
            xxxxxxxxxxxxxxxxxxxxxxxxxxxxxxxxxxxxxxxxxxxxxxxxxxxxxxxxxxxx
 
 
------------------------------------------------------------------------ <-- SCF
SCF loop      Energy           Fermi           Energy gain       Timer   <-- SCF
                               energy          per atom          (sec)   <-- SCF
------------------------------------------------------------------------ <-- SCF
Initial  -2.61582573E+003  0.00000000E+000                       300.23  <-- SCF
      1  -2.61740750E+003 -3.26029908E+000   4.79324330E-002     304.30  <-- SCF
      2  -2.61741029E+003 -3.26031400E+000   8.46211050E-005     310.93  <-- SCF
      3  -2.61740845E+003 -3.28429919E+000  -5.56230440E-005     316.92  <-- SCF
      4  -2.61740960E+003 -3.27893475E+000   3.47488704E-005     322.81  <-- SCF
      5  -2.61740941E+003 -3.28167203E+000  -5.73603566E-006     328.46  <-- SCF
      6  -2.61740944E+003 -3.28192258E+000   9.47765368E-007     333.24  <-- SCF
------------------------------------------------------------------------ <-- SCF
 
Final energy, E             =  -2617.409442692     eV
Final free energy (E-TS)    =  -2617.409442692     eV
(energies not corrected for finite basis set)
 
NB est. 0K energy (E-0.5TS)      =  -2617.409442692     eV
 
 
 *********************************** Forces ***********************************
 *                                                                            *
 *                        Cartesian components (eV/A)                         *
 * -------------------------------------------------------------------------- *
 *                   x                    y                    z              *
 *                                                                            *
 * H         1     -0.01990(cons'd)     -0.11554(cons'd)      0.00492(cons'd) *
 * H         2      0.02267(cons'd)     -0.02783(cons'd)      0.01251(cons'd) *
 * H         3     -0.01303(cons'd)     -0.01746(cons'd)      0.03059(cons'd) *
 * H         4      0.01192(cons'd)      0.02474(cons'd)      0.01588(cons'd) *
 * H         5     -0.01556(cons'd)      0.00869(cons'd)      0.00615(cons'd) *
 * H         6     -0.00075(cons'd)      0.00397(cons'd)     -0.03243(cons'd) *
 * H         7      0.02001(cons'd)      0.00722(cons'd)     -0.01758(cons'd) *
 * H         8      0.00385(cons'd)      0.01412(cons'd)     -0.03755(cons'd) *
 * H         9     -0.00240(cons'd)      0.00735(cons'd)      0.00449(cons'd) *
 * H        10     -0.01634(cons'd)      0.02217(cons'd)     -0.02059(cons'd) *
 * H        11     -0.38080              0.28017              2.40108         *
 * H        12      0.52222              0.12709              2.46321         *
 * H        13     -0.36105              0.47284             -0.86850         *
 * H        14      0.61968              0.29776             -0.90525         *
 * H        15     -0.23165              0.24397             -2.26222         *
 * H        16      0.36775              0.16087             -2.31621         *
 * H        17     -0.44118              0.45253              0.90972         *
 * H        18      0.66257              0.25811              0.93312         *
 * C         1     -0.03347(cons'd)     -0.21009(cons'd)     -0.06506(cons'd) *
 * C         2      0.02387(cons'd)      0.00268(cons'd)     -0.03412(cons'd) *
 * C         3      0.00740(cons'd)     -0.02669(cons'd)      0.04341(cons'd) *
 * C         4      0.00630(cons'd)     -0.00942(cons'd)      0.04324(cons'd) *
 * C         5      0.02038(cons'd)     -0.01272(cons'd)     -0.00043(cons'd) *
 * C         6     -2.57949(cons'd)     -1.24682(cons'd)     -0.02187(cons'd) *
 * C         7      1.99782(cons'd)     -2.04881(cons'd)     -0.00323(cons'd) *
 * C         8      0.59544(cons'd)      0.59892(cons'd)     -4.37434(cons'd) *
 * C         9     -0.38306(cons'd)      0.77997(cons'd)     -4.44252(cons'd) *
 * C        10      0.80021(cons'd)     -0.54998(cons'd)     -1.19468(cons'd) *
 * C        11     -1.08738(cons'd)     -0.21433(cons'd)     -1.13306(cons'd) *
 * C        12      0.52509(cons'd)      0.58357(cons'd)      4.25092(cons'd) *
 * C        13     -0.35869(cons'd)      0.73718(cons'd)      4.26648(cons'd) *
 * C        14      0.97745(cons'd)     -0.51790(cons'd)      1.21501(cons'd) *
 * C        15     -1.25990(cons'd)     -0.08633(cons'd)      1.12891(cons'd) *
 *                                                                            *
 ******************************************************************************
  
 +------------+-------------+-------------+-----------------+ <-- min BFGS
 |    Step    |   lambda    |   F.delta   |    enthalpy     | <-- min BFGS
 +------------+-------------+-------------+-----------------+ <-- min BFGS
 |  previous  |    0.000000 |    0.023474 |    -2616.829099 | <-- min BFGS
 | trial step |    1.000000 |    0.019156 |    -2617.409443 | <-- min BFGS
 +------------+-------------+-------------+-----------------+ <-- min BFGS
  

--------------------------------------------------------------------------------
 BFGS: improving iteration         2 with line minimization (lambda=  4.270246)
--------------------------------------------------------------------------------
 
                           -------------------------------
                                     Cell Contents
                           -------------------------------
 
            xxxxxxxxxxxxxxxxxxxxxxxxxxxxxxxxxxxxxxxxxxxxxxxxxxxxxxxxxxxx
            x  Element    Atom        Fractional coordinates of atoms  x
            x            Number           u          v          w      x
            x----------------------------------------------------------x
            x  H            1         0.205623   0.503383   0.590767   x
            x  H            2         0.174240   0.541620   0.371182   x
            x  H            3         0.244279   0.533836   0.376730   x
            x  H            4         0.247586   0.605997   0.541618   x
            x  H            5         0.177313   0.609928   0.545813   x
            x  H            6         0.175759   0.671340   0.369638   x
            x  H            7         0.246065   0.666619   0.361114   x
            x  H            8         0.218245   0.778245   0.437866   x
            x  H            9         0.183044   0.737287   0.543875   x
            x  H           10         0.253738   0.731775   0.537563   x
            x  H           11         0.090772   0.397611   0.374272   x
            x  H           12         0.284959   0.355307   0.373138   x
            x  H           13         0.144535   0.401789   0.784486   x
            x  H           14         0.235136   0.381978   0.784656   x
            x  H           15         0.090677   0.396184   0.632284   x
            x  H           16         0.284419   0.353887   0.632584   x
            x  H           17         0.144776   0.402521   0.223525   x
            x  H           18         0.235175   0.382911   0.222876   x
            x  C            1         0.202424   0.482454   0.508505   x
            x  C            2         0.208408   0.540435   0.427456   x
            x  C            3         0.211623   0.606679   0.489572   x
            x  C            4         0.212510   0.669413   0.419022   x
            x  C            5         0.217138   0.732781   0.487809   x
            x  C            6         0.153461   0.439632   0.504579   x
            x  C            7         0.237486   0.421875   0.504013   x
            x  C            8         0.132743   0.417006   0.403899   x
            x  C            9         0.250971   0.391664   0.403534   x
            x  C           10         0.164133   0.416119   0.703322   x
            x  C           11         0.220923   0.403864   0.703170   x
            x  C           12         0.132491   0.416485   0.604720   x
            x  C           13         0.250855   0.391071   0.604409   x
            x  C           14         0.164304   0.416333   0.305130   x
            x  C           15         0.220974   0.404155   0.304921   x
            xxxxxxxxxxxxxxxxxxxxxxxxxxxxxxxxxxxxxxxxxxxxxxxxxxxxxxxxxxxx
 
 
------------------------------------------------------------------------ <-- SCF
SCF loop      Energy           Fermi           Energy gain       Timer   <-- SCF
                               energy          per atom          (sec)   <-- SCF
------------------------------------------------------------------------ <-- SCF
Initial  -2.61150467E+003  0.00000000E+000                       340.45  <-- SCF
      1  -2.61838963E+003 -3.19531541E+000   2.08635179E-001     344.48  <-- SCF
      2  -2.61843597E+003 -3.19554457E+000   1.40423434E-003     350.89  <-- SCF
      3  -2.61840715E+003 -3.30933364E+000  -8.73408394E-004     356.94  <-- SCF
      4  -2.61841225E+003 -3.28327783E+000   1.54465154E-004     363.03  <-- SCF
      5  -2.61841073E+003 -3.29449817E+000  -4.59196511E-005     369.15  <-- SCF
      6  -2.61841105E+003 -3.29581776E+000   9.70434902E-006     374.21  <-- SCF
      7  -2.61841149E+003 -3.29624058E+000   1.32326388E-005     378.90  <-- SCF
      8  -2.61841210E+003 -3.29661436E+000   1.83849315E-005     383.86  <-- SCF
      9  -2.61841257E+003 -3.29668839E+000   1.42866574E-005     388.91  <-- SCF
     10  -2.61841298E+003 -3.29663382E+000   1.25294523E-005     393.98  <-- SCF
     11  -2.61841329E+003 -3.29643734E+000   9.31775244E-006     399.04  <-- SCF
     12  -2.61841347E+003 -3.29604839E+000   5.55829766E-006     404.07  <-- SCF
     13  -2.61841363E+003 -3.29542935E+000   4.91601929E-006     409.08  <-- SCF
     14  -2.61841372E+003 -3.29474788E+000   2.56701462E-006     414.03  <-- SCF
------------------------------------------------------------------------ <-- SCF
 
Final energy, E             =  -2618.413719588     eV
Final free energy (E-TS)    =  -2618.413719588     eV
(energies not corrected for finite basis set)
 
NB est. 0K energy (E-0.5TS)      =  -2618.413719588     eV
 
 
 *********************************** Forces ***********************************
 *                                                                            *
 *                        Cartesian components (eV/A)                         *
 * -------------------------------------------------------------------------- *
 *                   x                    y                    z              *
 *                                                                            *
 * H         1     -0.01775(cons'd)     -0.10169(cons'd)      0.00786(cons'd) *
 * H         2      0.02305(cons'd)     -0.02105(cons'd)      0.01091(cons'd) *
 * H         3     -0.01187(cons'd)     -0.01187(cons'd)      0.02877(cons'd) *
 * H         4      0.01139(cons'd)      0.02424(cons'd)      0.01622(cons'd) *
 * H         5     -0.01514(cons'd)      0.00804(cons'd)      0.00661(cons'd) *
 * H         6     -0.00040(cons'd)      0.00386(cons'd)     -0.03261(cons'd) *
 * H         7      0.01962(cons'd)      0.00711(cons'd)     -0.01771(cons'd) *
 * H         8      0.00384(cons'd)      0.01435(cons'd)     -0.03750(cons'd) *
 * H         9     -0.00224(cons'd)      0.00733(cons'd)      0.00459(cons'd) *
 * H        10     -0.01649(cons'd)      0.02209(cons'd)     -0.02047(cons'd) *
 * H        11      1.49964              0.79769              1.92366         *
 * H        12     -1.12487              1.30042              1.99194         *
 * H        13      0.35953              0.60479             -1.46670         *
 * H        14     -0.07494              0.69535             -1.51962         *
 * H        15      1.48374              0.76015             -1.78280         *
 * H        16     -1.11491              1.26813             -1.83762         *
 * H        17      0.33442              0.58830              1.52022         *
 * H        18     -0.06566              0.66746              1.56277         *
 * C         1     -0.03117(cons'd)     -0.21215(cons'd)     -0.05409(cons'd) *
 * C         2      0.02375(cons'd)      0.00515(cons'd)     -0.03572(cons'd) *
 * C         3      0.00693(cons'd)     -0.02870(cons'd)      0.03833(cons'd) *
 * C         4      0.00657(cons'd)     -0.00915(cons'd)      0.04444(cons'd) *
 * C         5      0.02026(cons'd)     -0.01265(cons'd)     -0.00123(cons'd) *
 * C         6     -2.19665(cons'd)     -1.10427(cons'd)     -0.00952(cons'd) *
 * C         7      1.68818(cons'd)     -1.78151(cons'd)      0.00744(cons'd) *
 * C         8     -0.65851(cons'd)      0.20891(cons'd)     -3.88499(cons'd) *
 * C         9      0.68856(cons'd)     -0.03729(cons'd)     -3.95505(cons'd) *
 * C        10     -0.25493(cons'd)     -0.95135(cons'd)     -0.52548(cons'd) *
 * C        11     -0.14473(cons'd)     -0.98434(cons'd)     -0.48652(cons'd) *
 * C        12     -0.64310(cons'd)      0.18029(cons'd)      3.73897(cons'd) *
 * C        13      0.62492(cons'd)     -0.05751(cons'd)      3.75094(cons'd) *
 * C        14     -0.18922(cons'd)     -0.93904(cons'd)      0.54478(cons'd) *
 * C        15     -0.23182(cons'd)     -0.91109(cons'd)      0.46917(cons'd) *
 *                                                                            *
 ******************************************************************************
  
 +------------+-------------+-------------+-----------------+ <-- min BFGS
 |    Step    |   lambda    |   F.delta   |    enthalpy     | <-- min BFGS
 +------------+-------------+-------------+-----------------+ <-- min BFGS
 |  previous  |    0.000000 |    0.023474 |    -2616.829099 | <-- min BFGS
 | trial step |    1.000000 |    0.019156 |    -2617.409443 | <-- min BFGS
 |  line step |    4.270246 |    0.003001 |    -2618.413720 | <-- min BFGS
 +------------+-------------+-------------+-----------------+ <-- min BFGS
  
 BFGS: finished iteration     2 with enthalpy= -2.61841372E+003 eV
  
 +-----------+-----------------+-----------------+------------+-----+ <-- BFGS
 | Parameter |      value      |    tolerance    |    units   | OK? | <-- BFGS
 +-----------+-----------------+-----------------+------------+-----+ <-- BFGS
 |  dE/ion   |   4.801880E-002 |   2.000000E-005 |         eV | No  | <-- BFGS
 |  |F|max   |   2.631402E+000 |   5.000000E-002 |       eV/A | No  | <-- BFGS
 |  |dR|max  |   2.645886E-001 |   1.000000E-003 |          A | No  | <-- BFGS
 +-----------+-----------------+-----------------+------------+-----+ <-- BFGS
  

================================================================================
 Starting BFGS iteration          3 ...
================================================================================
  
 +------------+-------------+-------------+-----------------+ <-- min BFGS
 |    Step    |   lambda    |   F.delta   |    enthalpy     | <-- min BFGS
 +------------+-------------+-------------+-----------------+ <-- min BFGS
 |  previous  |    0.000000 |    0.031854 |    -2618.413720 | <-- min BFGS
 +------------+-------------+-------------+-----------------+ <-- min BFGS
  

--------------------------------------------------------------------------------
 BFGS: starting iteration         3 with trial guess (lambda=  1.000000)
--------------------------------------------------------------------------------
 
                           -------------------------------
                                     Cell Contents
                           -------------------------------
 
            xxxxxxxxxxxxxxxxxxxxxxxxxxxxxxxxxxxxxxxxxxxxxxxxxxxxxxxxxxxx
            x  Element    Atom        Fractional coordinates of atoms  x
            x            Number           u          v          w      x
            x----------------------------------------------------------x
            x  H            1         0.205623   0.503383   0.590767   x
            x  H            2         0.174240   0.541620   0.371182   x
            x  H            3         0.244279   0.533836   0.376730   x
            x  H            4         0.247586   0.605997   0.541618   x
            x  H            5         0.177313   0.609928   0.545813   x
            x  H            6         0.175759   0.671340   0.369638   x
            x  H            7         0.246065   0.666619   0.361114   x
            x  H            8         0.218245   0.778245   0.437866   x
            x  H            9         0.183044   0.737287   0.543875   x
            x  H           10         0.253738   0.731775   0.537563   x
            x  H           11         0.089998   0.398147   0.382444   x
            x  H           12         0.285937   0.355480   0.381521   x
            x  H           13         0.143752   0.402692   0.782213   x
            x  H           14         0.236314   0.382449   0.782239   x
            x  H           15         0.090122   0.396623   0.624584   x
            x  H           16         0.285165   0.354097   0.624699   x
            x  H           17         0.143863   0.403388   0.225952   x
            x  H           18         0.236422   0.383305   0.225397   x
            x  C            1         0.202424   0.482454   0.508505   x
            x  C            2         0.208408   0.540435   0.427456   x
            x  C            3         0.211623   0.606679   0.489572   x
            x  C            4         0.212510   0.669413   0.419022   x
            x  C            5         0.217138   0.732781   0.487809   x
            x  C            6         0.153461   0.439632   0.504579   x
            x  C            7         0.237486   0.421875   0.504013   x
            x  C            8         0.132743   0.417006   0.403899   x
            x  C            9         0.250971   0.391664   0.403534   x
            x  C           10         0.164133   0.416119   0.703322   x
            x  C           11         0.220923   0.403864   0.703170   x
            x  C           12         0.132491   0.416485   0.604720   x
            x  C           13         0.250855   0.391071   0.604409   x
            x  C           14         0.164304   0.416333   0.305130   x
            x  C           15         0.220974   0.404155   0.304921   x
            xxxxxxxxxxxxxxxxxxxxxxxxxxxxxxxxxxxxxxxxxxxxxxxxxxxxxxxxxxxx
 
 
------------------------------------------------------------------------ <-- SCF
SCF loop      Energy           Fermi           Energy gain       Timer   <-- SCF
                               energy          per atom          (sec)   <-- SCF
------------------------------------------------------------------------ <-- SCF
Initial  -2.62003463E+003  0.00000000E+000                       421.26  <-- SCF
      1  -2.61911742E+003 -3.33334366E+000  -2.77943679E-002     425.66  <-- SCF
      2  -2.61912606E+003 -3.33337770E+000   2.61939783E-004     432.29  <-- SCF
      3  -2.61912039E+003 -3.29910557E+000  -1.71721788E-004     438.47  <-- SCF
      4  -2.61912307E+003 -3.30101191E+000   8.09938804E-005     444.36  <-- SCF
      5  -2.61912311E+003 -3.29749572E+000   1.26831513E-006     449.72  <-- SCF
      6  -2.61912315E+003 -3.29727332E+000   1.34957251E-006     454.55  <-- SCF
------------------------------------------------------------------------ <-- SCF
 
Final energy, E             =  -2619.123151933     eV
Final free energy (E-TS)    =  -2619.123151933     eV
(energies not corrected for finite basis set)
 
NB est. 0K energy (E-0.5TS)      =  -2619.123151933     eV
 
 
 *********************************** Forces ***********************************
 *                                                                            *
 *                        Cartesian components (eV/A)                         *
 * -------------------------------------------------------------------------- *
 *                   x                    y                    z              *
 *                                                                            *
 * H         1     -0.01681(cons'd)     -0.09356(cons'd)      0.00597(cons'd) *
 * H         2      0.02273(cons'd)     -0.01728(cons'd)      0.00921(cons'd) *
 * H         3     -0.01101(cons'd)     -0.00845(cons'd)      0.02679(cons'd) *
 * H         4      0.01033(cons'd)      0.02326(cons'd)      0.01590(cons'd) *
 * H         5     -0.01434(cons'd)      0.00675(cons'd)      0.00624(cons'd) *
 * H         6     -0.00003(cons'd)      0.00327(cons'd)     -0.03234(cons'd) *
 * H         7      0.01899(cons'd)      0.00658(cons'd)     -0.01738(cons'd) *
 * H         8      0.00373(cons'd)      0.01407(cons'd)     -0.03717(cons'd) *
 * H         9     -0.00208(cons'd)      0.00665(cons'd)      0.00431(cons'd) *
 * H        10     -0.01693(cons'd)      0.02143(cons'd)     -0.02073(cons'd) *
 * H        11      1.54680              0.71435              1.31277         *
 * H        12     -1.22812              1.25351              1.36981         *
 * H        13      0.32157              0.44338             -0.97030         *
 * H        14     -0.12994              0.54130             -1.02340         *
 * H        15      1.45645              0.66853             -1.20574         *
 * H        16     -1.14606              1.18182             -1.24911         *
 * H        17      0.32029              0.43443              1.01989         *
 * H        18     -0.13417              0.52613              1.06354         *
 * C         1     -0.02789(cons'd)     -0.20137(cons'd)     -0.04448(cons'd) *
 * C         2      0.02288(cons'd)     -0.00118(cons'd)     -0.03097(cons'd) *
 * C         3      0.00664(cons'd)     -0.03192(cons'd)      0.03221(cons'd) *
 * C         4      0.00670(cons'd)     -0.01056(cons'd)      0.04737(cons'd) *
 * C         5      0.02006(cons'd)     -0.01381(cons'd)     -0.00278(cons'd) *
 * C         6     -1.86465(cons'd)     -1.00034(cons'd)     -0.00409(cons'd) *
 * C         7      1.40991(cons'd)     -1.56930(cons'd)      0.01167(cons'd) *
 * C         8     -0.51369(cons'd)      0.32508(cons'd)     -3.22081(cons'd) *
 * C         9      0.61149(cons'd)      0.11429(cons'd)     -3.27396(cons'd) *
 * C        10     -0.37331(cons'd)     -0.90456(cons'd)     -0.94765(cons'd) *
 * C        11      0.02885(cons'd)     -0.99317(cons'd)     -0.92284(cons'd) *
 * C        12     -0.44981(cons'd)      0.29623(cons'd)      3.10536(cons'd) *
 * C        13      0.49938(cons'd)      0.11673(cons'd)      3.10057(cons'd) *
 * C        14     -0.35294(cons'd)     -0.90472(cons'd)      0.96939(cons'd) *
 * C        15     -0.02503(cons'd)     -0.94755(cons'd)      0.90278(cons'd) *
 *                                                                            *
 ******************************************************************************
  
 +------------+-------------+-------------+-----------------+ <-- min BFGS
 |    Step    |   lambda    |   F.delta   |    enthalpy     | <-- min BFGS
 +------------+-------------+-------------+-----------------+ <-- min BFGS
 |  previous  |    0.000000 |    0.031854 |    -2618.413720 | <-- min BFGS
 | trial step |    1.000000 |    0.020353 |    -2619.123152 | <-- min BFGS
 +------------+-------------+-------------+-----------------+ <-- min BFGS
  

--------------------------------------------------------------------------------
 BFGS: improving iteration         3 with line minimization (lambda=  2.495883)
--------------------------------------------------------------------------------
 
                           -------------------------------
                                     Cell Contents
                           -------------------------------
 
            xxxxxxxxxxxxxxxxxxxxxxxxxxxxxxxxxxxxxxxxxxxxxxxxxxxxxxxxxxxx
            x  Element    Atom        Fractional coordinates of atoms  x
            x            Number           u          v          w      x
            x----------------------------------------------------------x
            x  H            1         0.205623   0.503383   0.590767   x
            x  H            2         0.174240   0.541620   0.371182   x
            x  H            3         0.244279   0.533836   0.376730   x
            x  H            4         0.247586   0.605997   0.541618   x
            x  H            5         0.177313   0.609928   0.545813   x
            x  H            6         0.175759   0.671340   0.369638   x
            x  H            7         0.246065   0.666619   0.361114   x
            x  H            8         0.218245   0.778245   0.437866   x
            x  H            9         0.183044   0.737287   0.543875   x
            x  H           10         0.253738   0.731775   0.537563   x
            x  H           11         0.088841   0.398949   0.394667   x
            x  H           12         0.287400   0.355738   0.394062   x
            x  H           13         0.142582   0.404043   0.778814   x
            x  H           14         0.238076   0.383154   0.778623   x
            x  H           15         0.089291   0.397281   0.613065   x
            x  H           16         0.286281   0.354411   0.612904   x
            x  H           17         0.142497   0.404683   0.229582   x
            x  H           18         0.238287   0.383895   0.229168   x
            x  C            1         0.202424   0.482454   0.508505   x
            x  C            2         0.208408   0.540435   0.427456   x
            x  C            3         0.211623   0.606679   0.489572   x
            x  C            4         0.212510   0.669413   0.419022   x
            x  C            5         0.217138   0.732781   0.487809   x
            x  C            6         0.153461   0.439632   0.504579   x
            x  C            7         0.237486   0.421875   0.504013   x
            x  C            8         0.132743   0.417006   0.403899   x
            x  C            9         0.250971   0.391664   0.403534   x
            x  C           10         0.164133   0.416119   0.703322   x
            x  C           11         0.220923   0.403864   0.703170   x
            x  C           12         0.132491   0.416485   0.604720   x
            x  C           13         0.250855   0.391071   0.604409   x
            x  C           14         0.164304   0.416333   0.305130   x
            x  C           15         0.220974   0.404155   0.304921   x
            xxxxxxxxxxxxxxxxxxxxxxxxxxxxxxxxxxxxxxxxxxxxxxxxxxxxxxxxxxxx
 
 
------------------------------------------------------------------------ <-- SCF
SCF loop      Energy           Fermi           Energy gain       Timer   <-- SCF
                               energy          per atom          (sec)   <-- SCF
------------------------------------------------------------------------ <-- SCF
Initial  -2.61996628E+003  0.00000000E+000                       461.65  <-- SCF
      1  -2.61958189E+003 -3.33037199E+000  -1.16481787E-002     465.92  <-- SCF
      2  -2.61960574E+003 -3.33044672E+000   7.22917404E-004     472.50  <-- SCF
      3  -2.61959472E+003 -3.31100612E+000  -3.34037876E-004     478.56  <-- SCF
      4  -2.61960027E+003 -3.30412661E+000   1.68052308E-004     484.74  <-- SCF
      5  -2.61960053E+003 -3.30645442E+000   8.03233208E-006     490.29  <-- SCF
      6  -2.61960074E+003 -3.30472049E+000   6.30807733E-006     495.20  <-- SCF
      7  -2.61960104E+003 -3.30345302E+000   8.99755272E-006     499.59  <-- SCF
      8  -2.61960131E+003 -3.30279915E+000   8.23894398E-006     503.58  <-- SCF
      9  -2.61960156E+003 -3.30177238E+000   7.65068850E-006     507.85  <-- SCF
     10  -2.61960169E+003 -3.30093611E+000   4.07777074E-006     511.99  <-- SCF
     11  -2.61960185E+003 -3.30031452E+000   4.78307524E-006     516.04  <-- SCF
------------------------------------------------------------------------ <-- SCF
 
Final energy, E             =  -2619.601852517     eV
Final free energy (E-TS)    =  -2619.601852517     eV
(energies not corrected for finite basis set)
 
NB est. 0K energy (E-0.5TS)      =  -2619.601852517     eV
 
 
 *********************************** Forces ***********************************
 *                                                                            *
 *                        Cartesian components (eV/A)                         *
 * -------------------------------------------------------------------------- *
 *                   x                    y                    z              *
 *                                                                            *
 * H         1     -0.01465(cons'd)     -0.07839(cons'd)      0.00583(cons'd) *
 * H         2      0.02008(cons'd)     -0.01046(cons'd)      0.00455(cons'd) *
 * H         3     -0.00691(cons'd)     -0.00279(cons'd)      0.02196(cons'd) *
 * H         4      0.01119(cons'd)      0.02339(cons'd)      0.01725(cons'd) *
 * H         5     -0.01489(cons'd)      0.00664(cons'd)      0.00764(cons'd) *
 * H         6     -0.00098(cons'd)      0.00401(cons'd)     -0.03305(cons'd) *
 * H         7      0.01994(cons'd)      0.00715(cons'd)     -0.01817(cons'd) *
 * H         8      0.00392(cons'd)      0.01609(cons'd)     -0.03708(cons'd) *
 * H         9     -0.00248(cons'd)      0.00692(cons'd)      0.00518(cons'd) *
 * H        10     -0.01635(cons'd)      0.02157(cons'd)     -0.02001(cons'd) *
 * H        11      1.75707              0.63684              0.42221         *
 * H        12     -1.50206              1.27783              0.45736         *
 * H        13      0.19780              0.20406             -0.15483         *
 * H        14     -0.15023              0.29443             -0.22148         *
 * H        15      1.54018              0.57829             -0.37278         *
 * H        16     -1.29921              1.14327             -0.39594         *
 * H        17      0.23297              0.20672              0.20550         *
 * H        18     -0.17550              0.29842              0.26061         *
[...]
 * C        10     -0.25577(cons'd)     -0.56423(cons'd)     -1.80328(cons'd) *
 * C        11      0.07715(cons'd)     -0.61540(cons'd)     -1.85391(cons'd) *
 * C        12      1.03602(cons'd)      0.86352(cons'd)      1.82718(cons'd) *
 * C        13     -0.70929(cons'd)      1.22789(cons'd)      1.78011(cons'd) *
 * C        14     -0.28974(cons'd)     -0.57882(cons'd)      1.88590(cons'd) *
 * C        15      0.07080(cons'd)     -0.61633(cons'd)      1.87527(cons'd) *
 *                                                                            *
 ******************************************************************************
  
 +------------+-------------+-------------+-----------------+ <-- min BFGS
 |    Step    |   lambda    |   F.delta   |    enthalpy     | <-- min BFGS
 +------------+-------------+-------------+-----------------+ <-- min BFGS
 |  previous  |    0.000000 |  1.926E-006 |    -2619.928027 | <-- min BFGS
 | trial step |    1.000000 |  4.671E-007 |    -2619.928137 | <-- min BFGS
 +------------+-------------+-------------+-----------------+ <-- min BFGS
  
 BFGS: finished iteration    12 with enthalpy= -2.61992814E+003 eV
  
 +-----------+-----------------+-----------------+------------+-----+ <-- BFGS
 | Parameter |      value      |    tolerance    |    units   | OK? | <-- BFGS
 +-----------+-----------------+-----------------+------------+-----+ <-- BFGS
 |  dE/ion   |   3.331920E-006 |   2.000000E-005 |         eV | Yes | <-- BFGS
 |  |F|max   |   1.330584E-002 |   5.000000E-002 |       eV/A | Yes | <-- BFGS
 |  |dR|max  |   7.224456E-004 |   1.000000E-003 |          A | Yes | <-- BFGS
 +-----------+-----------------+-----------------+------------+-----+ <-- BFGS
  
 BFGS : Geometry optimization completed successfully.

================================================================================
 BFGS : Final Configuration:
================================================================================
 
                           -------------------------------
                                     Cell Contents
                           -------------------------------
 
            xxxxxxxxxxxxxxxxxxxxxxxxxxxxxxxxxxxxxxxxxxxxxxxxxxxxxxxxxxxx
            x  Element    Atom        Fractional coordinates of atoms  x
            x            Number           u          v          w      x
            x----------------------------------------------------------x
            x  H            1         0.205623   0.503383   0.590767   x
            x  H            2         0.174240   0.541620   0.371182   x
            x  H            3         0.244279   0.533836   0.376730   x
            x  H            4         0.247586   0.605997   0.541618   x
            x  H            5         0.177313   0.609928   0.545813   x
            x  H            6         0.175759   0.671340   0.369638   x
            x  H            7         0.246065   0.666619   0.361114   x
            x  H            8         0.218245   0.778245   0.437866   x
            x  H            9         0.183044   0.737287   0.543875   x
            x  H           10         0.253738   0.731775   0.537563   x
            x  H           11         0.091044   0.401034   0.399188   x
            x  H           12         0.285971   0.359125   0.398953   x
            x  H           13         0.143295   0.408282   0.780293   x
            x  H           14         0.238543   0.387664   0.779993   x
            x  H           15         0.091272   0.398620   0.608734   x
            x  H           16         0.284990   0.357114   0.608421   x
            x  H           17         0.143268   0.408763   0.228320   x
            x  H           18         0.238636   0.388166   0.228024   x
            x  C            1         0.202424   0.482454   0.508505   x
            x  C            2         0.208408   0.540435   0.427456   x
            x  C            3         0.211623   0.606679   0.489572   x
            x  C            4         0.212510   0.669413   0.419022   x
            x  C            5         0.217138   0.732781   0.487809   x
            x  C            6         0.153461   0.439632   0.504579   x
            x  C            7         0.237486   0.421875   0.504013   x
            x  C            8         0.132743   0.417006   0.403899   x
            x  C            9         0.250971   0.391664   0.403534   x
            x  C           10         0.164133   0.416119   0.703322   x
            x  C           11         0.220923   0.403864   0.703170   x
            x  C           12         0.132491   0.416485   0.604720   x
            x  C           13         0.250855   0.391071   0.604409   x
            x  C           14         0.164304   0.416333   0.305130   x
            x  C           15         0.220974   0.404155   0.304921   x
            xxxxxxxxxxxxxxxxxxxxxxxxxxxxxxxxxxxxxxxxxxxxxxxxxxxxxxxxxxxx
 
 
 BFGS : Final Enthalpy     = -2.61992814E+003 eV
 BFGS : Final <frequency>  =    3547.98630 cm-1
 
 *********************************** Forces ***********************************
 *                                                                            *
 *                        Cartesian components (eV/A)                         *
 * -------------------------------------------------------------------------- *
 *                   x                    y                    z              *
 *                                                                            *
 * H         1     -0.01545(cons'd)     -0.07739(cons'd)      0.00275(cons'd) *
 * H         2      0.01811(cons'd)     -0.00634(cons'd)      0.00113(cons'd) *
 * H         3     -0.00398(cons'd)      0.00066(cons'd)      0.01799(cons'd) *
 * H         4      0.01107(cons'd)      0.02364(cons'd)      0.01763(cons'd) *
 * H         5     -0.01459(cons'd)      0.00648(cons'd)      0.00792(cons'd) *
 * H         6     -0.00134(cons'd)      0.00444(cons'd)     -0.03348(cons'd) *
 * H         7      0.02028(cons'd)      0.00758(cons'd)     -0.01869(cons'd) *
 * H         8      0.00391(cons'd)      0.01743(cons'd)     -0.03706(cons'd) *
 * H         9     -0.00266(cons'd)      0.00714(cons'd)      0.00533(cons'd) *
 * H        10     -0.01613(cons'd)      0.02173(cons'd)     -0.01980(cons'd) *
 * H        11     -0.00033              0.01315             -0.00028         *
 * H        12      0.00241              0.01308             -0.00027         *
 * H        13      0.00445             -0.00150             -0.00792         *
 * H        14     -0.00249             -0.00043             -0.00271         *
 * H        15     -0.00339              0.01013              0.00059         *
 * H        16      0.00632              0.00880              0.00065         *
 * H        17      0.00245             -0.00080              0.00390         *
 * H        18     -0.00116             -0.00054              0.00030         *
 * C         1     -0.02558(cons'd)     -0.16836(cons'd)     -0.03316(cons'd) *
 * C         2      0.01878(cons'd)     -0.02169(cons'd)     -0.01547(cons'd) *
 * C         3      0.00690(cons'd)     -0.03064(cons'd)      0.01631(cons'd) *
 * C         4      0.00779(cons'd)     -0.00576(cons'd)      0.05352(cons'd) *
 * C         5      0.02010(cons'd)     -0.01020(cons'd)     -0.00599(cons'd) *
 * C         6     -0.88443(cons'd)     -0.77881(cons'd)      0.02950(cons'd) *
 * C         7      0.53165(cons'd)     -1.00961(cons'd)      0.03714(cons'd) *
 * C         8      1.06975(cons'd)      0.95251(cons'd)     -1.87065(cons'd) *
 * C         9     -0.68162(cons'd)      1.30867(cons'd)     -1.86047(cons'd) *
 * C        10     -0.25577(cons'd)     -0.56423(cons'd)     -1.80328(cons'd) *
 * C        11      0.07715(cons'd)     -0.61540(cons'd)     -1.85391(cons'd) *
 * C        12      1.03602(cons'd)      0.86352(cons'd)      1.82718(cons'd) *
 * C        13     -0.70929(cons'd)      1.22789(cons'd)      1.78011(cons'd) *
 * C        14     -0.28974(cons'd)     -0.57882(cons'd)      1.88590(cons'd) *
 * C        15      0.07080(cons'd)     -0.61633(cons'd)      1.87527(cons'd) *
 *                                                                            *
 ******************************************************************************
 
 Pseudo atomic calculation performed for H 1s1
 
 Converged in 12 iterations to a total energy of -12.4840 eV
 
 
 Pseudo atomic calculation performed for C 2s2 2p2
 
 Converged in 17 iterations to a total energy of -146.3556 eV
 
Charge spilling parameter for spin component 1 = 1.38%
 
     Atomic Populations (Mulliken)
     -----------------------------
Species   Ion     s      p      d      f     Total  Charge (e)
==============================================================
  H        1     0.71   0.00   0.00   0.00   0.71     0.29
  H        2     0.73   0.00   0.00   0.00   0.73     0.27
  H        3     0.73   0.00   0.00   0.00   0.73     0.27
  H        4     0.75   0.00   0.00   0.00   0.75     0.25
  H        5     0.75   0.00   0.00   0.00   0.75     0.25
  H        6     0.74   0.00   0.00   0.00   0.74     0.26
  H        7     0.74   0.00   0.00   0.00   0.74     0.26
  H        8     0.73   0.00   0.00   0.00   0.73     0.27
  H        9     0.74   0.00   0.00   0.00   0.74     0.26
  H       10     0.74   0.00   0.00   0.00   0.74     0.26
  H       11     0.70   0.00   0.00   0.00   0.70     0.30
  H       12     0.70   0.00   0.00   0.00   0.70     0.30
  H       13     0.70   0.00   0.00   0.00   0.70     0.30
  H       14     0.70   0.00   0.00   0.00   0.70     0.30
  H       15     0.70   0.00   0.00   0.00   0.70     0.30
  H       16     0.70   0.00   0.00   0.00   0.70     0.30
  H       17     0.70   0.00   0.00   0.00   0.70     0.30
  H       18     0.70   0.00   0.00   0.00   0.70     0.30
  C        1     1.18   3.06   0.00   0.00   4.25    -0.25
  C        2     1.29   3.21   0.00   0.00   4.50    -0.50
  C        3     1.29   3.21   0.00   0.00   4.50    -0.50
  C        4     1.30   3.21   0.00   0.00   4.51    -0.51
  C        5     1.40   3.40   0.00   0.00   4.80    -0.80
  C        6     1.10   2.89   0.00   0.00   3.99     0.01
  C        7     1.10   2.89   0.00   0.00   3.99     0.01
  C        8     1.19   3.11   0.00   0.00   4.30    -0.30
  C        9     1.19   3.11   0.00   0.00   4.30    -0.30
  C       10     1.21   3.12   0.00   0.00   4.33    -0.33
  C       11     1.21   3.12   0.00   0.00   4.33    -0.33
  C       12     1.19   3.11   0.00   0.00   4.30    -0.30
  C       13     1.19   3.11   0.00   0.00   4.30    -0.30
  C       14     1.21   3.11   0.00   0.00   4.33    -0.33
  C       15     1.21   3.11   0.00   0.00   4.32    -0.32
==============================================================
 
            Bond              Population      Length (A)
============================================================
         H 18 -- C 15              0.85        1.09153
         H 14 -- C 11              0.85        1.09158
         H 17 -- C 14              0.85        1.09166
         H 16 -- C 13              0.85        1.09174
         H 13 -- C 10              0.85        1.09175
         H 15 -- C 12              0.85        1.09177
         H 11 -- C 8               0.85        1.09187
         H 12 -- C 9               0.85        1.09192
         H 8  -- C 5               0.81        1.09761
         H 1  -- C 1               0.94        1.09771
         H 2  -- C 2               0.87        1.09960
         H 9  -- C 5               0.81        1.09997
         H 3  -- C 2               0.86        1.10034
         H 10 -- C 5               0.81        1.10092
         H 7  -- C 4               0.84        1.10179
         H 6  -- C 4               0.84        1.10202
         H 4  -- C 3               0.85        1.10371
         H 5  -- C 3               0.86        1.10377
         C 7  -- C 9               1.06        1.41617
         C 6  -- C 12              1.07        1.41624
         C 6  -- C 8               1.07        1.41632
         C 7  -- C 13              1.07        1.41971
         C 14 -- C 15              1.03        1.43754
         C 10 -- C 11              1.02        1.44074
         C 9  -- C 15              1.10        1.44756
         C 10 -- C 12              1.11        1.44780
         C 8  -- C 14              1.10        1.44847
         C 11 -- C 13              1.11        1.44930
         C 1  -- C 6               0.77        1.49471
         C 1  -- C 7               0.77        1.49644
         C 3  -- C 4               0.72        1.52559
         C 4  -- C 5               0.66        1.52812
         C 2  -- C 3               0.72        1.53144
         C 1  -- C 2               0.74        1.53639
         H 2  -- H 3              -0.12        1.75921
         H 4  -- H 5              -0.12        1.75935
         H 6  -- H 7              -0.13        1.76329
         H 9  -- H 10             -0.11        1.77248
         H 8  -- H 9              -0.11        1.77340
         H 8  -- H 10             -0.11        1.77602
         H 1  -- C 7              -0.14        2.10479
         H 1  -- C 6              -0.14        2.10941
         C 6  -- C 7              -0.14        2.13043
         H 1  -- C 2              -0.14        2.14180
         H 5  -- C 4              -0.14        2.14961
         H 4  -- C 2              -0.14        2.15631
         H 4  -- C 4              -0.13        2.15651
         H 6  -- C 3              -0.13        2.15676
         H 5  -- C 2              -0.13        2.15743
         H 18 -- C 14             -0.15        2.16094
         H 17 -- C 15             -0.15        2.16098
         H 14 -- C 10             -0.15        2.16180
         H 13 -- C 11             -0.15        2.16185
         H 7  -- C 3              -0.13        2.16193
         H 2  -- C 3              -0.13        2.16476
         H 6  -- C 5              -0.13        2.16608
         H 7  -- C 5              -0.13        2.16828
         H 11 -- C 6              -0.13        2.17040
         H 12 -- C 7              -0.13        2.17105
         H 3  -- C 3              -0.13        2.17131
         H 15 -- C 6              -0.13        2.17498
         H 16 -- C 7              -0.13        2.17637
         H 9  -- C 4              -0.12        2.17779
         H 10 -- C 4              -0.12        2.17784
         H 2  -- C 1              -0.12        2.17910
         H 18 -- C 9              -0.14        2.18138
         H 17 -- C 8              -0.14        2.18140
         H 13 -- C 12             -0.14        2.18211
         H 14 -- C 13             -0.14        2.18214
         H 3  -- C 1              -0.12        2.18564
         H 11 -- C 14             -0.13        2.18769
         H 12 -- C 15             -0.13        2.18828
         H 15 -- C 10             -0.13        2.18941
         H 16 -- C 11             -0.13        2.19026
         H 8  -- C 4              -0.12        2.19363
         H 1  -- H 5              -0.03        2.31241
         H 1  -- H 4              -0.02        2.38280
         H 1  -- C 3              -0.10        2.41644
         H 13 -- H 14             -0.05        2.41664
         H 17 -- H 18             -0.05        2.41953
         H 1  -- C 11             -0.03        2.45329
         H 1  -- C 10             -0.03        2.45720
         C 8  -- C 12             -0.20        2.46963
         C 9  -- C 13             -0.20        2.47029
         H 11 -- H 17             -0.04        2.47866
         H 12 -- H 18             -0.04        2.48116
         H 14 -- H 16             -0.04        2.48462
         H 13 -- H 15             -0.04        2.48594
         C 1  -- C 13             -0.19        2.48945
         C 1  -- C 12             -0.19        2.48945
         H 3  -- H 4              -0.04        2.49024
         H 5  -- H 6              -0.04        2.49076
         C 6  -- C 10             -0.19        2.50313
         C 1  -- C 3              -0.16        2.50597
         C 7  -- C 15             -0.18        2.50805
         C 7  -- C 11             -0.18        2.50987
         C 6  -- C 14             -0.18        2.51127
         H 1  -- C 13             -0.08        2.52043
         H 4  -- H 10             -0.01        2.52074
         H 7  -- H 8              -0.03        2.52166
         H 6  -- H 9              -0.03        2.52266
         C 3  -- C 5              -0.16        2.52589
         H 1  -- C 12             -0.07        2.52838
         H 4  -- H 7              -0.03        2.52956
         C 9  -- C 14             -0.18        2.53028
         C 1  -- C 8              -0.17        2.53037
         H 6  -- H 8              -0.03        2.53053
         C 8  -- C 15             -0.17        2.53241
         C 11 -- C 12             -0.17        2.53320
         C 10 -- C 13             -0.17        2.53595
         C 1  -- C 9              -0.17        2.53704
         H 7  -- H 10             -0.03        2.53836
         H 2  -- H 5              -0.03        2.54640
         H 5  -- H 9              -0.01        2.55132
         H 12 -- H 16             -0.01        2.57637
         H 11 -- H 15             -0.01        2.57735
         C 2  -- C 4              -0.14        2.58370
         H 2  -- H 6              -0.01        2.59476
         C 2  -- C 6              -0.13        2.61743
         H 2  -- C 14             -0.03        2.64578
         C 2  -- C 7              -0.12        2.65280
         H 3  -- H 7              -0.01        2.66295
         H 5  -- C 1              -0.05        2.66541
         H 2  -- C 6              -0.06        2.66862
         H 4  -- C 5              -0.04        2.72892
         H 2  -- C 8              -0.02        2.72939
         H 3  -- C 7              -0.06        2.73734
         H 5  -- C 5              -0.04        2.74539
         H 4  -- C 1              -0.04        2.74695
         H 16 -- C 9              -0.04        2.74757
         H 15 -- C 8              -0.04        2.74868
         H 11 -- C 12             -0.04        2.74910
         H 12 -- C 13             -0.04        2.75001
         H 10 -- C 3              -0.04        2.77783
         H 9  -- C 3              -0.04        2.78922
         H 2  -- C 4              -0.04        2.79177
         H 3  -- C 15             -0.02        2.80111
         H 7  -- C 2              -0.03        2.81440
         H 6  -- C 2              -0.03        2.83307
         H 3  -- C 9              -0.02        2.86738
         H 1  -- H 3               0.02        2.86931
         H 3  -- C 4              -0.03        2.87293
         C 6  -- C 13             -0.03        2.89464
         C 7  -- C 8              -0.04        2.89518
         C 6  -- C 9              -0.04        2.89948
         C 1  -- C 11             -0.07        2.90089
         C 1  -- C 10             -0.07        2.90107
         C 7  -- C 12             -0.03        2.90437
         H 1  -- H 2               0.02        2.91414
         C 1  -- C 14             -0.04        2.98530
         C 1  -- C 15             -0.04        2.98920
         C 8  -- C 9              -0.10        2.99884
============================================================
 

Writing analysis data to Butane_66_CNT_cluster_convergence.Butane-2_flakes.castep_bin

Writing model to Butane_66_CNT_cluster_convergence.Butane-2_flakes.check
 
 A BibTeX formatted list of references used in this run has been written to 
 Butane_66_CNT_cluster_convergence.Butane-2_flakes.bib
 
Initialisation time =      4.79 s
Calculation time    =    860.93 s
Finalisation time   =      2.50 s
Total time          =    868.21 s
Peak Memory Use     = 510508 kB
  
Overall parallel efficiency rating: Poor (46%)                                  
  
Data was distributed by:-
G-vector (20-way); efficiency rating: Poor (46%)                                
